t 1.2 /NodeList/1/$ns3::Ipv4L3Protocol/Tx(2) ns3::Ipv4Header (tos 0x0 DSCP Default ECN Not-ECT ttl 64 id 0 protocol 17 offset (bytes) 0 flags [none] length: 78 172.16.1.1 > 10.1.3.2) ns3::UdpHeader (length: 58 49153 > 9) Payload (size=50)
+ 1.2 /NodeList/1/DeviceList/1/$ns3::PointToPointNetDevice/TxQueue/Enqueue ns3::PppHeader (Point-to-Point Protocol: IP (0x0021)) ns3::Ipv4Header (tos 0x0 DSCP Default ECN Not-ECT ttl 64 id 0 protocol 17 offset (bytes) 0 flags [none] length: 78 172.16.1.1 > 10.1.3.2) ns3::UdpHeader (length: 58 49153 > 9) Payload (size=50)
- 1.2 /NodeList/1/DeviceList/1/$ns3::PointToPointNetDevice/TxQueue/Dequeue ns3::PppHeader (Point-to-Point Protocol: IP (0x0021)) ns3::Ipv4Header (tos 0x0 DSCP Default ECN Not-ECT ttl 64 id 0 protocol 17 offset (bytes) 0 flags [none] length: 78 172.16.1.1 > 10.1.3.2) ns3::UdpHeader (length: 58 49153 > 9) Payload (size=50)
r 1.20213 /NodeList/6/DeviceList/1/$ns3::PointToPointNetDevice/MacRx ns3::PppHeader (Point-to-Point Protocol: IP (0x0021)) ns3::Ipv4Header (tos 0x0 DSCP Default ECN Not-ECT ttl 64 id 0 protocol 17 offset (bytes) 0 flags [none] length: 78 172.16.1.1 > 10.1.3.2) ns3::UdpHeader (length: 58 49153 > 9) Payload (size=50)
r 1.20213 /NodeList/6/$ns3::Ipv4L3Protocol/Rx(2) ns3::Ipv4Header (tos 0x0 DSCP Default ECN Not-ECT ttl 64 id 0 protocol 17 offset (bytes) 0 flags [none] length: 78 172.16.1.1 > 10.1.3.2) ns3::UdpHeader (length: 58 49153 > 9) Payload (size=50)
t 1.4 /NodeList/1/$ns3::Ipv4L3Protocol/Tx(2) ns3::Ipv4Header (tos 0x0 DSCP Default ECN Not-ECT ttl 64 id 1 protocol 17 offset (bytes) 0 flags [none] length: 78 172.16.1.1 > 10.1.3.2) ns3::UdpHeader (length: 58 49153 > 9) Payload (size=50)
+ 1.4 /NodeList/1/DeviceList/1/$ns3::PointToPointNetDevice/TxQueue/Enqueue ns3::PppHeader (Point-to-Point Protocol: IP (0x0021)) ns3::Ipv4Header (tos 0x0 DSCP Default ECN Not-ECT ttl 64 id 1 protocol 17 offset (bytes) 0 flags [none] length: 78 172.16.1.1 > 10.1.3.2) ns3::UdpHeader (length: 58 49153 > 9) Payload (size=50)
- 1.4 /NodeList/1/DeviceList/1/$ns3::PointToPointNetDevice/TxQueue/Dequeue ns3::PppHeader (Point-to-Point Protocol: IP (0x0021)) ns3::Ipv4Header (tos 0x0 DSCP Default ECN Not-ECT ttl 64 id 1 protocol 17 offset (bytes) 0 flags [none] length: 78 172.16.1.1 > 10.1.3.2) ns3::UdpHeader (length: 58 49153 > 9) Payload (size=50)
r 1.40213 /NodeList/6/DeviceList/1/$ns3::PointToPointNetDevice/MacRx ns3::PppHeader (Point-to-Point Protocol: IP (0x0021)) ns3::Ipv4Header (tos 0x0 DSCP Default ECN Not-ECT ttl 64 id 1 protocol 17 offset (bytes) 0 flags [none] length: 78 172.16.1.1 > 10.1.3.2) ns3::UdpHeader (length: 58 49153 > 9) Payload (size=50)
r 1.40213 /NodeList/6/$ns3::Ipv4L3Protocol/Rx(2) ns3::Ipv4Header (tos 0x0 DSCP Default ECN Not-ECT ttl 64 id 1 protocol 17 offset (bytes) 0 flags [none] length: 78 172.16.1.1 > 10.1.3.2) ns3::UdpHeader (length: 58 49153 > 9) Payload (size=50)
t 1.6 /NodeList/1/$ns3::Ipv4L3Protocol/Tx(2) ns3::Ipv4Header (tos 0x0 DSCP Default ECN Not-ECT ttl 64 id 2 protocol 17 offset (bytes) 0 flags [none] length: 78 172.16.1.1 > 10.1.3.2) ns3::UdpHeader (length: 58 49153 > 9) Payload (size=50)
+ 1.6 /NodeList/1/DeviceList/1/$ns3::PointToPointNetDevice/TxQueue/Enqueue ns3::PppHeader (Point-to-Point Protocol: IP (0x0021)) ns3::Ipv4Header (tos 0x0 DSCP Default ECN Not-ECT ttl 64 id 2 protocol 17 offset (bytes) 0 flags [none] length: 78 172.16.1.1 > 10.1.3.2) ns3::UdpHeader (length: 58 49153 > 9) Payload (size=50)
- 1.6 /NodeList/1/DeviceList/1/$ns3::PointToPointNetDevice/TxQueue/Dequeue ns3::PppHeader (Point-to-Point Protocol: IP (0x0021)) ns3::Ipv4Header (tos 0x0 DSCP Default ECN Not-ECT ttl 64 id 2 protocol 17 offset (bytes) 0 flags [none] length: 78 172.16.1.1 > 10.1.3.2) ns3::UdpHeader (length: 58 49153 > 9) Payload (size=50)
r 1.60213 /NodeList/6/DeviceList/1/$ns3::PointToPointNetDevice/MacRx ns3::PppHeader (Point-to-Point Protocol: IP (0x0021)) ns3::Ipv4Header (tos 0x0 DSCP Default ECN Not-ECT ttl 64 id 2 protocol 17 offset (bytes) 0 flags [none] length: 78 172.16.1.1 > 10.1.3.2) ns3::UdpHeader (length: 58 49153 > 9) Payload (size=50)
r 1.60213 /NodeList/6/$ns3::Ipv4L3Protocol/Rx(2) ns3::Ipv4Header (tos 0x0 DSCP Default ECN Not-ECT ttl 64 id 2 protocol 17 offset (bytes) 0 flags [none] length: 78 172.16.1.1 > 10.1.3.2) ns3::UdpHeader (length: 58 49153 > 9) Payload (size=50)
t 1.8 /NodeList/1/$ns3::Ipv4L3Protocol/Tx(2) ns3::Ipv4Header (tos 0x0 DSCP Default ECN Not-ECT ttl 64 id 3 protocol 17 offset (bytes) 0 flags [none] length: 78 172.16.1.1 > 10.1.3.2) ns3::UdpHeader (length: 58 49153 > 9) Payload (size=50)
+ 1.8 /NodeList/1/DeviceList/1/$ns3::PointToPointNetDevice/TxQueue/Enqueue ns3::PppHeader (Point-to-Point Protocol: IP (0x0021)) ns3::Ipv4Header (tos 0x0 DSCP Default ECN Not-ECT ttl 64 id 3 protocol 17 offset (bytes) 0 flags [none] length: 78 172.16.1.1 > 10.1.3.2) ns3::UdpHeader (length: 58 49153 > 9) Payload (size=50)
- 1.8 /NodeList/1/DeviceList/1/$ns3::PointToPointNetDevice/TxQueue/Dequeue ns3::PppHeader (Point-to-Point Protocol: IP (0x0021)) ns3::Ipv4Header (tos 0x0 DSCP Default ECN Not-ECT ttl 64 id 3 protocol 17 offset (bytes) 0 flags [none] length: 78 172.16.1.1 > 10.1.3.2) ns3::UdpHeader (length: 58 49153 > 9) Payload (size=50)
r 1.80213 /NodeList/6/DeviceList/1/$ns3::PointToPointNetDevice/MacRx ns3::PppHeader (Point-to-Point Protocol: IP (0x0021)) ns3::Ipv4Header (tos 0x0 DSCP Default ECN Not-ECT ttl 64 id 3 protocol 17 offset (bytes) 0 flags [none] length: 78 172.16.1.1 > 10.1.3.2) ns3::UdpHeader (length: 58 49153 > 9) Payload (size=50)
r 1.80213 /NodeList/6/$ns3::Ipv4L3Protocol/Rx(2) ns3::Ipv4Header (tos 0x0 DSCP Default ECN Not-ECT ttl 64 id 3 protocol 17 offset (bytes) 0 flags [none] length: 78 172.16.1.1 > 10.1.3.2) ns3::UdpHeader (length: 58 49153 > 9) Payload (size=50)
t 2 /NodeList/1/$ns3::Ipv4L3Protocol/Tx(1) ns3::Ipv4Header (tos 0x0 DSCP Default ECN Not-ECT ttl 64 id 0 protocol 17 offset (bytes) 0 flags [none] length: 78 10.1.2.1 > 10.1.3.2) ns3::UdpHeader (length: 58 49153 > 9) Payload (size=50)
+ 2 /NodeList/1/DeviceList/2/$ns3::PointToPointNetDevice/TxQueue/Enqueue ns3::PppHeader (Point-to-Point Protocol: IP (0x0021)) ns3::Ipv4Header (tos 0x0 DSCP Default ECN Not-ECT ttl 64 id 0 protocol 17 offset (bytes) 0 flags [none] length: 78 10.1.2.1 > 10.1.3.2) ns3::UdpHeader (length: 58 49153 > 9) Payload (size=50)
- 2 /NodeList/1/DeviceList/2/$ns3::PointToPointNetDevice/TxQueue/Dequeue ns3::PppHeader (Point-to-Point Protocol: IP (0x0021)) ns3::Ipv4Header (tos 0x0 DSCP Default ECN Not-ECT ttl 64 id 0 protocol 17 offset (bytes) 0 flags [none] length: 78 10.1.2.1 > 10.1.3.2) ns3::UdpHeader (length: 58 49153 > 9) Payload (size=50)
r 2.00213 /NodeList/2/DeviceList/2/$ns3::PointToPointNetDevice/MacRx ns3::PppHeader (Point-to-Point Protocol: IP (0x0021)) ns3::Ipv4Header (tos 0x0 DSCP Default ECN Not-ECT ttl 64 id 0 protocol 17 offset (bytes) 0 flags [none] length: 78 10.1.2.1 > 10.1.3.2) ns3::UdpHeader (length: 58 49153 > 9) Payload (size=50)
r 2.00213 /NodeList/2/$ns3::Ipv4L3Protocol/Rx(2) ns3::Ipv4Header (tos 0x0 DSCP Default ECN Not-ECT ttl 64 id 0 protocol 17 offset (bytes) 0 flags [none] length: 78 10.1.2.1 > 10.1.3.2) ns3::UdpHeader (length: 58 49153 > 9) Payload (size=50)
t 2.00213 /NodeList/2/$ns3::Ipv4L3Protocol/Tx(3) ns3::Ipv4Header (tos 0x0 DSCP Default ECN Not-ECT ttl 63 id 0 protocol 17 offset (bytes) 0 flags [none] length: 78 10.1.2.1 > 10.1.3.2) ns3::UdpHeader (length: 58 49153 > 9) Payload (size=50)
+ 2.01113 /NodeList/2/DeviceList/3/$ns3::CsmaNetDevice/TxQueue/Enqueue ns3::EthernetHeader ( length/type=0x806, source=00:00:00:00:00:09, destination=ff:ff:ff:ff:ff:ff) ns3::ArpHeader (request source mac: 00-06-00:00:00:00:00:09 source ipv4: 10.250.1.1 dest ipv4: 10.250.1.4) Payload (size=18) ns3::EthernetTrailer (fcs=0)
- 2.01113 /NodeList/2/DeviceList/3/$ns3::CsmaNetDevice/TxQueue/Dequeue ns3::EthernetHeader ( length/type=0x806, source=00:00:00:00:00:09, destination=ff:ff:ff:ff:ff:ff) ns3::ArpHeader (request source mac: 00-06-00:00:00:00:00:09 source ipv4: 10.250.1.1 dest ipv4: 10.250.1.4) Payload (size=18) ns3::EthernetTrailer (fcs=0)
r 2.01323 /NodeList/3/DeviceList/1/$ns3::CsmaNetDevice/MacRx ns3::EthernetHeader ( length/type=0x806, source=00:00:00:00:00:09, destination=ff:ff:ff:ff:ff:ff) ns3::ArpHeader (request source mac: 00-06-00:00:00:00:00:09 source ipv4: 10.250.1.1 dest ipv4: 10.250.1.4) Payload (size=18) ns3::EthernetTrailer (fcs=0)
r 2.01323 /NodeList/4/DeviceList/1/$ns3::CsmaNetDevice/MacRx ns3::EthernetHeader ( length/type=0x806, source=00:00:00:00:00:09, destination=ff:ff:ff:ff:ff:ff) ns3::ArpHeader (request source mac: 00-06-00:00:00:00:00:09 source ipv4: 10.250.1.1 dest ipv4: 10.250.1.4) Payload (size=18) ns3::EthernetTrailer (fcs=0)
r 2.01323 /NodeList/5/DeviceList/2/$ns3::CsmaNetDevice/MacRx ns3::EthernetHeader ( length/type=0x806, source=00:00:00:00:00:09, destination=ff:ff:ff:ff:ff:ff) ns3::ArpHeader (request source mac: 00-06-00:00:00:00:00:09 source ipv4: 10.250.1.1 dest ipv4: 10.250.1.4) Payload (size=18) ns3::EthernetTrailer (fcs=0)
+ 2.01323 /NodeList/5/DeviceList/2/$ns3::CsmaNetDevice/TxQueue/Enqueue ns3::EthernetHeader ( length/type=0x806, source=00:00:00:00:00:0c, destination=00:00:00:00:00:09) ns3::ArpHeader (reply source mac: 00-06-00:00:00:00:00:0c source ipv4: 10.250.1.4 dest mac: 00-06-00:00:00:00:00:09 dest ipv4: 10.250.1.1) Payload (size=18) ns3::EthernetTrailer (fcs=0)
- 2.01323 /NodeList/5/DeviceList/2/$ns3::CsmaNetDevice/TxQueue/Dequeue ns3::EthernetHeader ( length/type=0x806, source=00:00:00:00:00:0c, destination=00:00:00:00:00:09) ns3::ArpHeader (reply source mac: 00-06-00:00:00:00:00:0c source ipv4: 10.250.1.4 dest mac: 00-06-00:00:00:00:00:09 dest ipv4: 10.250.1.1) Payload (size=18) ns3::EthernetTrailer (fcs=0)
r 2.01533 /NodeList/2/DeviceList/3/$ns3::CsmaNetDevice/MacRx ns3::EthernetHeader ( length/type=0x806, source=00:00:00:00:00:0c, destination=00:00:00:00:00:09) ns3::ArpHeader (reply source mac: 00-06-00:00:00:00:00:0c source ipv4: 10.250.1.4 dest mac: 00-06-00:00:00:00:00:09 dest ipv4: 10.250.1.1) Payload (size=18) ns3::EthernetTrailer (fcs=0)
+ 2.01533 /NodeList/2/DeviceList/3/$ns3::CsmaNetDevice/TxQueue/Enqueue ns3::EthernetHeader ( length/type=0x800, source=00:00:00:00:00:09, destination=00:00:00:00:00:0c) ns3::Ipv4Header (tos 0x0 DSCP Default ECN Not-ECT ttl 63 id 0 protocol 17 offset (bytes) 0 flags [none] length: 78 10.1.2.1 > 10.1.3.2) ns3::UdpHeader (length: 58 49153 > 9) Payload (size=50) ns3::EthernetTrailer (fcs=0)
- 2.01533 /NodeList/2/DeviceList/3/$ns3::CsmaNetDevice/TxQueue/Dequeue ns3::EthernetHeader ( length/type=0x800, source=00:00:00:00:00:09, destination=00:00:00:00:00:0c) ns3::Ipv4Header (tos 0x0 DSCP Default ECN Not-ECT ttl 63 id 0 protocol 17 offset (bytes) 0 flags [none] length: 78 10.1.2.1 > 10.1.3.2) ns3::UdpHeader (length: 58 49153 > 9) Payload (size=50) ns3::EthernetTrailer (fcs=0)
r 2.01749 /NodeList/5/DeviceList/2/$ns3::CsmaNetDevice/MacRx ns3::EthernetHeader ( length/type=0x800, source=00:00:00:00:00:09, destination=00:00:00:00:00:0c) ns3::Ipv4Header (tos 0x0 DSCP Default ECN Not-ECT ttl 63 id 0 protocol 17 offset (bytes) 0 flags [none] length: 78 10.1.2.1 > 10.1.3.2) ns3::UdpHeader (length: 58 49153 > 9) Payload (size=50) ns3::EthernetTrailer (fcs=0)
r 2.01749 /NodeList/5/$ns3::Ipv4L3Protocol/Rx(2) ns3::Ipv4Header (tos 0x0 DSCP Default ECN Not-ECT ttl 63 id 0 protocol 17 offset (bytes) 0 flags [none] length: 78 10.1.2.1 > 10.1.3.2) ns3::UdpHeader (length: 58 49153 > 9) Payload (size=50)
t 2.01749 /NodeList/5/$ns3::Ipv4L3Protocol/Tx(1) ns3::Ipv4Header (tos 0x0 DSCP Default ECN Not-ECT ttl 62 id 0 protocol 17 offset (bytes) 0 flags [none] length: 78 10.1.2.1 > 10.1.3.2) ns3::UdpHeader (length: 58 49153 > 9) Payload (size=50)
+ 2.01749 /NodeList/5/DeviceList/1/$ns3::PointToPointNetDevice/TxQueue/Enqueue ns3::PppHeader (Point-to-Point Protocol: IP (0x0021)) ns3::Ipv4Header (tos 0x0 DSCP Default ECN Not-ECT ttl 62 id 0 protocol 17 offset (bytes) 0 flags [none] length: 78 10.1.2.1 > 10.1.3.2) ns3::UdpHeader (length: 58 49153 > 9) Payload (size=50)
- 2.01749 /NodeList/5/DeviceList/1/$ns3::PointToPointNetDevice/TxQueue/Dequeue ns3::PppHeader (Point-to-Point Protocol: IP (0x0021)) ns3::Ipv4Header (tos 0x0 DSCP Default ECN Not-ECT ttl 62 id 0 protocol 17 offset (bytes) 0 flags [none] length: 78 10.1.2.1 > 10.1.3.2) ns3::UdpHeader (length: 58 49153 > 9) Payload (size=50)
r 2.02792 /NodeList/6/DeviceList/2/$ns3::PointToPointNetDevice/MacRx ns3::PppHeader (Point-to-Point Protocol: IP (0x0021)) ns3::Ipv4Header (tos 0x0 DSCP Default ECN Not-ECT ttl 62 id 0 protocol 17 offset (bytes) 0 flags [none] length: 78 10.1.2.1 > 10.1.3.2) ns3::UdpHeader (length: 58 49153 > 9) Payload (size=50)
r 2.02792 /NodeList/6/$ns3::Ipv4L3Protocol/Rx(1) ns3::Ipv4Header (tos 0x0 DSCP Default ECN Not-ECT ttl 62 id 0 protocol 17 offset (bytes) 0 flags [none] length: 78 10.1.2.1 > 10.1.3.2) ns3::UdpHeader (length: 58 49153 > 9) Payload (size=50)
t 2.2 /NodeList/1/$ns3::Ipv4L3Protocol/Tx(1) ns3::Ipv4Header (tos 0x0 DSCP Default ECN Not-ECT ttl 64 id 1 protocol 17 offset (bytes) 0 flags [none] length: 78 10.1.2.1 > 10.1.3.2) ns3::UdpHeader (length: 58 49153 > 9) Payload (size=50)
+ 2.2 /NodeList/1/DeviceList/2/$ns3::PointToPointNetDevice/TxQueue/Enqueue ns3::PppHeader (Point-to-Point Protocol: IP (0x0021)) ns3::Ipv4Header (tos 0x0 DSCP Default ECN Not-ECT ttl 64 id 1 protocol 17 offset (bytes) 0 flags [none] length: 78 10.1.2.1 > 10.1.3.2) ns3::UdpHeader (length: 58 49153 > 9) Payload (size=50)
- 2.2 /NodeList/1/DeviceList/2/$ns3::PointToPointNetDevice/TxQueue/Dequeue ns3::PppHeader (Point-to-Point Protocol: IP (0x0021)) ns3::Ipv4Header (tos 0x0 DSCP Default ECN Not-ECT ttl 64 id 1 protocol 17 offset (bytes) 0 flags [none] length: 78 10.1.2.1 > 10.1.3.2) ns3::UdpHeader (length: 58 49153 > 9) Payload (size=50)
r 2.20213 /NodeList/2/DeviceList/2/$ns3::PointToPointNetDevice/MacRx ns3::PppHeader (Point-to-Point Protocol: IP (0x0021)) ns3::Ipv4Header (tos 0x0 DSCP Default ECN Not-ECT ttl 64 id 1 protocol 17 offset (bytes) 0 flags [none] length: 78 10.1.2.1 > 10.1.3.2) ns3::UdpHeader (length: 58 49153 > 9) Payload (size=50)
r 2.20213 /NodeList/2/$ns3::Ipv4L3Protocol/Rx(2) ns3::Ipv4Header (tos 0x0 DSCP Default ECN Not-ECT ttl 64 id 1 protocol 17 offset (bytes) 0 flags [none] length: 78 10.1.2.1 > 10.1.3.2) ns3::UdpHeader (length: 58 49153 > 9) Payload (size=50)
t 2.20213 /NodeList/2/$ns3::Ipv4L3Protocol/Tx(3) ns3::Ipv4Header (tos 0x0 DSCP Default ECN Not-ECT ttl 63 id 1 protocol 17 offset (bytes) 0 flags [none] length: 78 10.1.2.1 > 10.1.3.2) ns3::UdpHeader (length: 58 49153 > 9) Payload (size=50)
+ 2.20213 /NodeList/2/DeviceList/3/$ns3::CsmaNetDevice/TxQueue/Enqueue ns3::EthernetHeader ( length/type=0x800, source=00:00:00:00:00:09, destination=00:00:00:00:00:0c) ns3::Ipv4Header (tos 0x0 DSCP Default ECN Not-ECT ttl 63 id 1 protocol 17 offset (bytes) 0 flags [none] length: 78 10.1.2.1 > 10.1.3.2) ns3::UdpHeader (length: 58 49153 > 9) Payload (size=50) ns3::EthernetTrailer (fcs=0)
- 2.20213 /NodeList/2/DeviceList/3/$ns3::CsmaNetDevice/TxQueue/Dequeue ns3::EthernetHeader ( length/type=0x800, source=00:00:00:00:00:09, destination=00:00:00:00:00:0c) ns3::Ipv4Header (tos 0x0 DSCP Default ECN Not-ECT ttl 63 id 1 protocol 17 offset (bytes) 0 flags [none] length: 78 10.1.2.1 > 10.1.3.2) ns3::UdpHeader (length: 58 49153 > 9) Payload (size=50) ns3::EthernetTrailer (fcs=0)
r 2.20428 /NodeList/5/DeviceList/2/$ns3::CsmaNetDevice/MacRx ns3::EthernetHeader ( length/type=0x800, source=00:00:00:00:00:09, destination=00:00:00:00:00:0c) ns3::Ipv4Header (tos 0x0 DSCP Default ECN Not-ECT ttl 63 id 1 protocol 17 offset (bytes) 0 flags [none] length: 78 10.1.2.1 > 10.1.3.2) ns3::UdpHeader (length: 58 49153 > 9) Payload (size=50) ns3::EthernetTrailer (fcs=0)
r 2.20428 /NodeList/5/$ns3::Ipv4L3Protocol/Rx(2) ns3::Ipv4Header (tos 0x0 DSCP Default ECN Not-ECT ttl 63 id 1 protocol 17 offset (bytes) 0 flags [none] length: 78 10.1.2.1 > 10.1.3.2) ns3::UdpHeader (length: 58 49153 > 9) Payload (size=50)
t 2.20428 /NodeList/5/$ns3::Ipv4L3Protocol/Tx(1) ns3::Ipv4Header (tos 0x0 DSCP Default ECN Not-ECT ttl 62 id 1 protocol 17 offset (bytes) 0 flags [none] length: 78 10.1.2.1 > 10.1.3.2) ns3::UdpHeader (length: 58 49153 > 9) Payload (size=50)
+ 2.20428 /NodeList/5/DeviceList/1/$ns3::PointToPointNetDevice/TxQueue/Enqueue ns3::PppHeader (Point-to-Point Protocol: IP (0x0021)) ns3::Ipv4Header (tos 0x0 DSCP Default ECN Not-ECT ttl 62 id 1 protocol 17 offset (bytes) 0 flags [none] length: 78 10.1.2.1 > 10.1.3.2) ns3::UdpHeader (length: 58 49153 > 9) Payload (size=50)
- 2.20428 /NodeList/5/DeviceList/1/$ns3::PointToPointNetDevice/TxQueue/Dequeue ns3::PppHeader (Point-to-Point Protocol: IP (0x0021)) ns3::Ipv4Header (tos 0x0 DSCP Default ECN Not-ECT ttl 62 id 1 protocol 17 offset (bytes) 0 flags [none] length: 78 10.1.2.1 > 10.1.3.2) ns3::UdpHeader (length: 58 49153 > 9) Payload (size=50)
r 2.21471 /NodeList/6/DeviceList/2/$ns3::PointToPointNetDevice/MacRx ns3::PppHeader (Point-to-Point Protocol: IP (0x0021)) ns3::Ipv4Header (tos 0x0 DSCP Default ECN Not-ECT ttl 62 id 1 protocol 17 offset (bytes) 0 flags [none] length: 78 10.1.2.1 > 10.1.3.2) ns3::UdpHeader (length: 58 49153 > 9) Payload (size=50)
r 2.21471 /NodeList/6/$ns3::Ipv4L3Protocol/Rx(1) ns3::Ipv4Header (tos 0x0 DSCP Default ECN Not-ECT ttl 62 id 1 protocol 17 offset (bytes) 0 flags [none] length: 78 10.1.2.1 > 10.1.3.2) ns3::UdpHeader (length: 58 49153 > 9) Payload (size=50)
t 2.4 /NodeList/1/$ns3::Ipv4L3Protocol/Tx(1) ns3::Ipv4Header (tos 0x0 DSCP Default ECN Not-ECT ttl 64 id 2 protocol 17 offset (bytes) 0 flags [none] length: 78 10.1.2.1 > 10.1.3.2) ns3::UdpHeader (length: 58 49153 > 9) Payload (size=50)
+ 2.4 /NodeList/1/DeviceList/2/$ns3::PointToPointNetDevice/TxQueue/Enqueue ns3::PppHeader (Point-to-Point Protocol: IP (0x0021)) ns3::Ipv4Header (tos 0x0 DSCP Default ECN Not-ECT ttl 64 id 2 protocol 17 offset (bytes) 0 flags [none] length: 78 10.1.2.1 > 10.1.3.2) ns3::UdpHeader (length: 58 49153 > 9) Payload (size=50)
- 2.4 /NodeList/1/DeviceList/2/$ns3::PointToPointNetDevice/TxQueue/Dequeue ns3::PppHeader (Point-to-Point Protocol: IP (0x0021)) ns3::Ipv4Header (tos 0x0 DSCP Default ECN Not-ECT ttl 64 id 2 protocol 17 offset (bytes) 0 flags [none] length: 78 10.1.2.1 > 10.1.3.2) ns3::UdpHeader (length: 58 49153 > 9) Payload (size=50)
r 2.40213 /NodeList/2/DeviceList/2/$ns3::PointToPointNetDevice/MacRx ns3::PppHeader (Point-to-Point Protocol: IP (0x0021)) ns3::Ipv4Header (tos 0x0 DSCP Default ECN Not-ECT ttl 64 id 2 protocol 17 offset (bytes) 0 flags [none] length: 78 10.1.2.1 > 10.1.3.2) ns3::UdpHeader (length: 58 49153 > 9) Payload (size=50)
r 2.40213 /NodeList/2/$ns3::Ipv4L3Protocol/Rx(2) ns3::Ipv4Header (tos 0x0 DSCP Default ECN Not-ECT ttl 64 id 2 protocol 17 offset (bytes) 0 flags [none] length: 78 10.1.2.1 > 10.1.3.2) ns3::UdpHeader (length: 58 49153 > 9) Payload (size=50)
t 2.40213 /NodeList/2/$ns3::Ipv4L3Protocol/Tx(3) ns3::Ipv4Header (tos 0x0 DSCP Default ECN Not-ECT ttl 63 id 2 protocol 17 offset (bytes) 0 flags [none] length: 78 10.1.2.1 > 10.1.3.2) ns3::UdpHeader (length: 58 49153 > 9) Payload (size=50)
+ 2.40213 /NodeList/2/DeviceList/3/$ns3::CsmaNetDevice/TxQueue/Enqueue ns3::EthernetHeader ( length/type=0x800, source=00:00:00:00:00:09, destination=00:00:00:00:00:0c) ns3::Ipv4Header (tos 0x0 DSCP Default ECN Not-ECT ttl 63 id 2 protocol 17 offset (bytes) 0 flags [none] length: 78 10.1.2.1 > 10.1.3.2) ns3::UdpHeader (length: 58 49153 > 9) Payload (size=50) ns3::EthernetTrailer (fcs=0)
- 2.40213 /NodeList/2/DeviceList/3/$ns3::CsmaNetDevice/TxQueue/Dequeue ns3::EthernetHeader ( length/type=0x800, source=00:00:00:00:00:09, destination=00:00:00:00:00:0c) ns3::Ipv4Header (tos 0x0 DSCP Default ECN Not-ECT ttl 63 id 2 protocol 17 offset (bytes) 0 flags [none] length: 78 10.1.2.1 > 10.1.3.2) ns3::UdpHeader (length: 58 49153 > 9) Payload (size=50) ns3::EthernetTrailer (fcs=0)
r 2.40428 /NodeList/5/DeviceList/2/$ns3::CsmaNetDevice/MacRx ns3::EthernetHeader ( length/type=0x800, source=00:00:00:00:00:09, destination=00:00:00:00:00:0c) ns3::Ipv4Header (tos 0x0 DSCP Default ECN Not-ECT ttl 63 id 2 protocol 17 offset (bytes) 0 flags [none] length: 78 10.1.2.1 > 10.1.3.2) ns3::UdpHeader (length: 58 49153 > 9) Payload (size=50) ns3::EthernetTrailer (fcs=0)
r 2.40428 /NodeList/5/$ns3::Ipv4L3Protocol/Rx(2) ns3::Ipv4Header (tos 0x0 DSCP Default ECN Not-ECT ttl 63 id 2 protocol 17 offset (bytes) 0 flags [none] length: 78 10.1.2.1 > 10.1.3.2) ns3::UdpHeader (length: 58 49153 > 9) Payload (size=50)
t 2.40428 /NodeList/5/$ns3::Ipv4L3Protocol/Tx(1) ns3::Ipv4Header (tos 0x0 DSCP Default ECN Not-ECT ttl 62 id 2 protocol 17 offset (bytes) 0 flags [none] length: 78 10.1.2.1 > 10.1.3.2) ns3::UdpHeader (length: 58 49153 > 9) Payload (size=50)
+ 2.40428 /NodeList/5/DeviceList/1/$ns3::PointToPointNetDevice/TxQueue/Enqueue ns3::PppHeader (Point-to-Point Protocol: IP (0x0021)) ns3::Ipv4Header (tos 0x0 DSCP Default ECN Not-ECT ttl 62 id 2 protocol 17 offset (bytes) 0 flags [none] length: 78 10.1.2.1 > 10.1.3.2) ns3::UdpHeader (length: 58 49153 > 9) Payload (size=50)
- 2.40428 /NodeList/5/DeviceList/1/$ns3::PointToPointNetDevice/TxQueue/Dequeue ns3::PppHeader (Point-to-Point Protocol: IP (0x0021)) ns3::Ipv4Header (tos 0x0 DSCP Default ECN Not-ECT ttl 62 id 2 protocol 17 offset (bytes) 0 flags [none] length: 78 10.1.2.1 > 10.1.3.2) ns3::UdpHeader (length: 58 49153 > 9) Payload (size=50)
r 2.41471 /NodeList/6/DeviceList/2/$ns3::PointToPointNetDevice/MacRx ns3::PppHeader (Point-to-Point Protocol: IP (0x0021)) ns3::Ipv4Header (tos 0x0 DSCP Default ECN Not-ECT ttl 62 id 2 protocol 17 offset (bytes) 0 flags [none] length: 78 10.1.2.1 > 10.1.3.2) ns3::UdpHeader (length: 58 49153 > 9) Payload (size=50)
r 2.41471 /NodeList/6/$ns3::Ipv4L3Protocol/Rx(1) ns3::Ipv4Header (tos 0x0 DSCP Default ECN Not-ECT ttl 62 id 2 protocol 17 offset (bytes) 0 flags [none] length: 78 10.1.2.1 > 10.1.3.2) ns3::UdpHeader (length: 58 49153 > 9) Payload (size=50)
t 2.6 /NodeList/1/$ns3::Ipv4L3Protocol/Tx(1) ns3::Ipv4Header (tos 0x0 DSCP Default ECN Not-ECT ttl 64 id 3 protocol 17 offset (bytes) 0 flags [none] length: 78 10.1.2.1 > 10.1.3.2) ns3::UdpHeader (length: 58 49153 > 9) Payload (size=50)
+ 2.6 /NodeList/1/DeviceList/2/$ns3::PointToPointNetDevice/TxQueue/Enqueue ns3::PppHeader (Point-to-Point Protocol: IP (0x0021)) ns3::Ipv4Header (tos 0x0 DSCP Default ECN Not-ECT ttl 64 id 3 protocol 17 offset (bytes) 0 flags [none] length: 78 10.1.2.1 > 10.1.3.2) ns3::UdpHeader (length: 58 49153 > 9) Payload (size=50)
- 2.6 /NodeList/1/DeviceList/2/$ns3::PointToPointNetDevice/TxQueue/Dequeue ns3::PppHeader (Point-to-Point Protocol: IP (0x0021)) ns3::Ipv4Header (tos 0x0 DSCP Default ECN Not-ECT ttl 64 id 3 protocol 17 offset (bytes) 0 flags [none] length: 78 10.1.2.1 > 10.1.3.2) ns3::UdpHeader (length: 58 49153 > 9) Payload (size=50)
r 2.60213 /NodeList/2/DeviceList/2/$ns3::PointToPointNetDevice/MacRx ns3::PppHeader (Point-to-Point Protocol: IP (0x0021)) ns3::Ipv4Header (tos 0x0 DSCP Default ECN Not-ECT ttl 64 id 3 protocol 17 offset (bytes) 0 flags [none] length: 78 10.1.2.1 > 10.1.3.2) ns3::UdpHeader (length: 58 49153 > 9) Payload (size=50)
r 2.60213 /NodeList/2/$ns3::Ipv4L3Protocol/Rx(2) ns3::Ipv4Header (tos 0x0 DSCP Default ECN Not-ECT ttl 64 id 3 protocol 17 offset (bytes) 0 flags [none] length: 78 10.1.2.1 > 10.1.3.2) ns3::UdpHeader (length: 58 49153 > 9) Payload (size=50)
t 2.60213 /NodeList/2/$ns3::Ipv4L3Protocol/Tx(3) ns3::Ipv4Header (tos 0x0 DSCP Default ECN Not-ECT ttl 63 id 3 protocol 17 offset (bytes) 0 flags [none] length: 78 10.1.2.1 > 10.1.3.2) ns3::UdpHeader (length: 58 49153 > 9) Payload (size=50)
+ 2.60213 /NodeList/2/DeviceList/3/$ns3::CsmaNetDevice/TxQueue/Enqueue ns3::EthernetHeader ( length/type=0x800, source=00:00:00:00:00:09, destination=00:00:00:00:00:0c) ns3::Ipv4Header (tos 0x0 DSCP Default ECN Not-ECT ttl 63 id 3 protocol 17 offset (bytes) 0 flags [none] length: 78 10.1.2.1 > 10.1.3.2) ns3::UdpHeader (length: 58 49153 > 9) Payload (size=50) ns3::EthernetTrailer (fcs=0)
- 2.60213 /NodeList/2/DeviceList/3/$ns3::CsmaNetDevice/TxQueue/Dequeue ns3::EthernetHeader ( length/type=0x800, source=00:00:00:00:00:09, destination=00:00:00:00:00:0c) ns3::Ipv4Header (tos 0x0 DSCP Default ECN Not-ECT ttl 63 id 3 protocol 17 offset (bytes) 0 flags [none] length: 78 10.1.2.1 > 10.1.3.2) ns3::UdpHeader (length: 58 49153 > 9) Payload (size=50) ns3::EthernetTrailer (fcs=0)
r 2.60428 /NodeList/5/DeviceList/2/$ns3::CsmaNetDevice/MacRx ns3::EthernetHeader ( length/type=0x800, source=00:00:00:00:00:09, destination=00:00:00:00:00:0c) ns3::Ipv4Header (tos 0x0 DSCP Default ECN Not-ECT ttl 63 id 3 protocol 17 offset (bytes) 0 flags [none] length: 78 10.1.2.1 > 10.1.3.2) ns3::UdpHeader (length: 58 49153 > 9) Payload (size=50) ns3::EthernetTrailer (fcs=0)
r 2.60428 /NodeList/5/$ns3::Ipv4L3Protocol/Rx(2) ns3::Ipv4Header (tos 0x0 DSCP Default ECN Not-ECT ttl 63 id 3 protocol 17 offset (bytes) 0 flags [none] length: 78 10.1.2.1 > 10.1.3.2) ns3::UdpHeader (length: 58 49153 > 9) Payload (size=50)
t 2.60428 /NodeList/5/$ns3::Ipv4L3Protocol/Tx(1) ns3::Ipv4Header (tos 0x0 DSCP Default ECN Not-ECT ttl 62 id 3 protocol 17 offset (bytes) 0 flags [none] length: 78 10.1.2.1 > 10.1.3.2) ns3::UdpHeader (length: 58 49153 > 9) Payload (size=50)
+ 2.60428 /NodeList/5/DeviceList/1/$ns3::PointToPointNetDevice/TxQueue/Enqueue ns3::PppHeader (Point-to-Point Protocol: IP (0x0021)) ns3::Ipv4Header (tos 0x0 DSCP Default ECN Not-ECT ttl 62 id 3 protocol 17 offset (bytes) 0 flags [none] length: 78 10.1.2.1 > 10.1.3.2) ns3::UdpHeader (length: 58 49153 > 9) Payload (size=50)
- 2.60428 /NodeList/5/DeviceList/1/$ns3::PointToPointNetDevice/TxQueue/Dequeue ns3::PppHeader (Point-to-Point Protocol: IP (0x0021)) ns3::Ipv4Header (tos 0x0 DSCP Default ECN Not-ECT ttl 62 id 3 protocol 17 offset (bytes) 0 flags [none] length: 78 10.1.2.1 > 10.1.3.2) ns3::UdpHeader (length: 58 49153 > 9) Payload (size=50)
r 2.61471 /NodeList/6/DeviceList/2/$ns3::PointToPointNetDevice/MacRx ns3::PppHeader (Point-to-Point Protocol: IP (0x0021)) ns3::Ipv4Header (tos 0x0 DSCP Default ECN Not-ECT ttl 62 id 3 protocol 17 offset (bytes) 0 flags [none] length: 78 10.1.2.1 > 10.1.3.2) ns3::UdpHeader (length: 58 49153 > 9) Payload (size=50)
r 2.61471 /NodeList/6/$ns3::Ipv4L3Protocol/Rx(1) ns3::Ipv4Header (tos 0x0 DSCP Default ECN Not-ECT ttl 62 id 3 protocol 17 offset (bytes) 0 flags [none] length: 78 10.1.2.1 > 10.1.3.2) ns3::UdpHeader (length: 58 49153 > 9) Payload (size=50)
t 2.8 /NodeList/1/$ns3::Ipv4L3Protocol/Tx(1) ns3::Ipv4Header (tos 0x0 DSCP Default ECN Not-ECT ttl 64 id 4 protocol 17 offset (bytes) 0 flags [none] length: 78 10.1.2.1 > 10.1.3.2) ns3::UdpHeader (length: 58 49153 > 9) Payload (size=50)
+ 2.8 /NodeList/1/DeviceList/2/$ns3::PointToPointNetDevice/TxQueue/Enqueue ns3::PppHeader (Point-to-Point Protocol: IP (0x0021)) ns3::Ipv4Header (tos 0x0 DSCP Default ECN Not-ECT ttl 64 id 4 protocol 17 offset (bytes) 0 flags [none] length: 78 10.1.2.1 > 10.1.3.2) ns3::UdpHeader (length: 58 49153 > 9) Payload (size=50)
- 2.8 /NodeList/1/DeviceList/2/$ns3::PointToPointNetDevice/TxQueue/Dequeue ns3::PppHeader (Point-to-Point Protocol: IP (0x0021)) ns3::Ipv4Header (tos 0x0 DSCP Default ECN Not-ECT ttl 64 id 4 protocol 17 offset (bytes) 0 flags [none] length: 78 10.1.2.1 > 10.1.3.2) ns3::UdpHeader (length: 58 49153 > 9) Payload (size=50)
r 2.80213 /NodeList/2/DeviceList/2/$ns3::PointToPointNetDevice/MacRx ns3::PppHeader (Point-to-Point Protocol: IP (0x0021)) ns3::Ipv4Header (tos 0x0 DSCP Default ECN Not-ECT ttl 64 id 4 protocol 17 offset (bytes) 0 flags [none] length: 78 10.1.2.1 > 10.1.3.2) ns3::UdpHeader (length: 58 49153 > 9) Payload (size=50)
r 2.80213 /NodeList/2/$ns3::Ipv4L3Protocol/Rx(2) ns3::Ipv4Header (tos 0x0 DSCP Default ECN Not-ECT ttl 64 id 4 protocol 17 offset (bytes) 0 flags [none] length: 78 10.1.2.1 > 10.1.3.2) ns3::UdpHeader (length: 58 49153 > 9) Payload (size=50)
t 2.80213 /NodeList/2/$ns3::Ipv4L3Protocol/Tx(3) ns3::Ipv4Header (tos 0x0 DSCP Default ECN Not-ECT ttl 63 id 4 protocol 17 offset (bytes) 0 flags [none] length: 78 10.1.2.1 > 10.1.3.2) ns3::UdpHeader (length: 58 49153 > 9) Payload (size=50)
+ 2.80213 /NodeList/2/DeviceList/3/$ns3::CsmaNetDevice/TxQueue/Enqueue ns3::EthernetHeader ( length/type=0x800, source=00:00:00:00:00:09, destination=00:00:00:00:00:0c) ns3::Ipv4Header (tos 0x0 DSCP Default ECN Not-ECT ttl 63 id 4 protocol 17 offset (bytes) 0 flags [none] length: 78 10.1.2.1 > 10.1.3.2) ns3::UdpHeader (length: 58 49153 > 9) Payload (size=50) ns3::EthernetTrailer (fcs=0)
- 2.80213 /NodeList/2/DeviceList/3/$ns3::CsmaNetDevice/TxQueue/Dequeue ns3::EthernetHeader ( length/type=0x800, source=00:00:00:00:00:09, destination=00:00:00:00:00:0c) ns3::Ipv4Header (tos 0x0 DSCP Default ECN Not-ECT ttl 63 id 4 protocol 17 offset (bytes) 0 flags [none] length: 78 10.1.2.1 > 10.1.3.2) ns3::UdpHeader (length: 58 49153 > 9) Payload (size=50) ns3::EthernetTrailer (fcs=0)
r 2.80428 /NodeList/5/DeviceList/2/$ns3::CsmaNetDevice/MacRx ns3::EthernetHeader ( length/type=0x800, source=00:00:00:00:00:09, destination=00:00:00:00:00:0c) ns3::Ipv4Header (tos 0x0 DSCP Default ECN Not-ECT ttl 63 id 4 protocol 17 offset (bytes) 0 flags [none] length: 78 10.1.2.1 > 10.1.3.2) ns3::UdpHeader (length: 58 49153 > 9) Payload (size=50) ns3::EthernetTrailer (fcs=0)
r 2.80428 /NodeList/5/$ns3::Ipv4L3Protocol/Rx(2) ns3::Ipv4Header (tos 0x0 DSCP Default ECN Not-ECT ttl 63 id 4 protocol 17 offset (bytes) 0 flags [none] length: 78 10.1.2.1 > 10.1.3.2) ns3::UdpHeader (length: 58 49153 > 9) Payload (size=50)
t 2.80428 /NodeList/5/$ns3::Ipv4L3Protocol/Tx(1) ns3::Ipv4Header (tos 0x0 DSCP Default ECN Not-ECT ttl 62 id 4 protocol 17 offset (bytes) 0 flags [none] length: 78 10.1.2.1 > 10.1.3.2) ns3::UdpHeader (length: 58 49153 > 9) Payload (size=50)