t 0.00126667 /NodeList/42/DeviceList/0/$ns3::WifiNetDevice/Phy/State/Tx ns3::WifiMacHeader (DATA ToDS=0, FromDS=0, MoreFrag=0, Retry=0, MoreData=0 Duration/ID=0us, DA=ff:ff:ff:ff:ff:ff, SA=00:00:00:00:00:2b, BSSID=00:00:00:00:00:2b, FragNumber=0, SeqNumber=0) ns3::LlcSnapHeader (type 0x806) ns3::ArpHeader (request source mac: 00-06-00:00:00:00:00:2b source ipv4: 10.0.0.43 dest ipv4: 10.0.0.31) ns3::WifiMacTrailer ()
t 0.00126667 /NodeList/66/DeviceList/0/$ns3::WifiNetDevice/Phy/State/Tx ns3::WifiMacHeader (DATA ToDS=0, FromDS=0, MoreFrag=0, Retry=0, MoreData=0 Duration/ID=0us, DA=ff:ff:ff:ff:ff:ff, SA=00:00:00:00:00:43, BSSID=00:00:00:00:00:43, FragNumber=0, SeqNumber=0) ns3::LlcSnapHeader (type 0x806) ns3::ArpHeader (request source mac: 00-06-00:00:00:00:00:43 source ipv4: 10.0.0.67 dest ipv4: 10.0.0.68) ns3::WifiMacTrailer ()
r 0.00137877 /NodeList/32/DeviceList/0/$ns3::WifiNetDevice/Phy/State/RxOk ns3::WifiMacHeader (DATA ToDS=0, FromDS=0, MoreFrag=0, Retry=0, MoreData=0 Duration/ID=0us, DA=ff:ff:ff:ff:ff:ff, SA=00:00:00:00:00:2b, BSSID=00:00:00:00:00:2b, FragNumber=0, SeqNumber=0) ns3::LlcSnapHeader (type 0x806) ns3::ArpHeader (request source mac: 00-06-00:00:00:00:00:2b source ipv4: 10.0.0.43 dest ipv4: 10.0.0.31) ns3::WifiMacTrailer ()
r 0.00137877 /NodeList/41/DeviceList/0/$ns3::WifiNetDevice/Phy/State/RxOk ns3::WifiMacHeader (DATA ToDS=0, FromDS=0, MoreFrag=0, Retry=0, MoreData=0 Duration/ID=0us, DA=ff:ff:ff:ff:ff:ff, SA=00:00:00:00:00:2b, BSSID=00:00:00:00:00:2b, FragNumber=0, SeqNumber=0) ns3::LlcSnapHeader (type 0x806) ns3::ArpHeader (request source mac: 00-06-00:00:00:00:00:2b source ipv4: 10.0.0.43 dest ipv4: 10.0.0.31) ns3::WifiMacTrailer ()
r 0.00137877 /NodeList/43/DeviceList/0/$ns3::WifiNetDevice/Phy/State/RxOk ns3::WifiMacHeader (DATA ToDS=0, FromDS=0, MoreFrag=0, Retry=0, MoreData=0 Duration/ID=0us, DA=ff:ff:ff:ff:ff:ff, SA=00:00:00:00:00:2b, BSSID=00:00:00:00:00:2b, FragNumber=0, SeqNumber=0) ns3::LlcSnapHeader (type 0x806) ns3::ArpHeader (request source mac: 00-06-00:00:00:00:00:2b source ipv4: 10.0.0.43 dest ipv4: 10.0.0.31) ns3::WifiMacTrailer ()
r 0.00137877 /NodeList/52/DeviceList/0/$ns3::WifiNetDevice/Phy/State/RxOk ns3::WifiMacHeader (DATA ToDS=0, FromDS=0, MoreFrag=0, Retry=0, MoreData=0 Duration/ID=0us, DA=ff:ff:ff:ff:ff:ff, SA=00:00:00:00:00:2b, BSSID=00:00:00:00:00:2b, FragNumber=0, SeqNumber=0) ns3::LlcSnapHeader (type 0x806) ns3::ArpHeader (request source mac: 00-06-00:00:00:00:00:2b source ipv4: 10.0.0.43 dest ipv4: 10.0.0.31) ns3::WifiMacTrailer ()
r 0.00137877 /NodeList/56/DeviceList/0/$ns3::WifiNetDevice/Phy/State/RxOk ns3::WifiMacHeader (DATA ToDS=0, FromDS=0, MoreFrag=0, Retry=0, MoreData=0 Duration/ID=0us, DA=ff:ff:ff:ff:ff:ff, SA=00:00:00:00:00:43, BSSID=00:00:00:00:00:43, FragNumber=0, SeqNumber=0) ns3::LlcSnapHeader (type 0x806) ns3::ArpHeader (request source mac: 00-06-00:00:00:00:00:43 source ipv4: 10.0.0.67 dest ipv4: 10.0.0.68) ns3::WifiMacTrailer ()
r 0.00137877 /NodeList/65/DeviceList/0/$ns3::WifiNetDevice/Phy/State/RxOk ns3::WifiMacHeader (DATA ToDS=0, FromDS=0, MoreFrag=0, Retry=0, MoreData=0 Duration/ID=0us, DA=ff:ff:ff:ff:ff:ff, SA=00:00:00:00:00:43, BSSID=00:00:00:00:00:43, FragNumber=0, SeqNumber=0) ns3::LlcSnapHeader (type 0x806) ns3::ArpHeader (request source mac: 00-06-00:00:00:00:00:43 source ipv4: 10.0.0.67 dest ipv4: 10.0.0.68) ns3::WifiMacTrailer ()
r 0.00137877 /NodeList/67/DeviceList/0/$ns3::WifiNetDevice/Phy/State/RxOk ns3::WifiMacHeader (DATA ToDS=0, FromDS=0, MoreFrag=0, Retry=0, MoreData=0 Duration/ID=0us, DA=ff:ff:ff:ff:ff:ff, SA=00:00:00:00:00:43, BSSID=00:00:00:00:00:43, FragNumber=0, SeqNumber=0) ns3::LlcSnapHeader (type 0x806) ns3::ArpHeader (request source mac: 00-06-00:00:00:00:00:43 source ipv4: 10.0.0.67 dest ipv4: 10.0.0.68) ns3::WifiMacTrailer ()
r 0.00137877 /NodeList/76/DeviceList/0/$ns3::WifiNetDevice/Phy/State/RxOk ns3::WifiMacHeader (DATA ToDS=0, FromDS=0, MoreFrag=0, Retry=0, MoreData=0 Duration/ID=0us, DA=ff:ff:ff:ff:ff:ff, SA=00:00:00:00:00:43, BSSID=00:00:00:00:00:43, FragNumber=0, SeqNumber=0) ns3::LlcSnapHeader (type 0x806) ns3::ArpHeader (request source mac: 00-06-00:00:00:00:00:43 source ipv4: 10.0.0.67 dest ipv4: 10.0.0.68) ns3::WifiMacTrailer ()
r 0.00137881 /NodeList/31/DeviceList/0/$ns3::WifiNetDevice/Phy/State/RxOk ns3::WifiMacHeader (DATA ToDS=0, FromDS=0, MoreFrag=0, Retry=0, MoreData=0 Duration/ID=0us, DA=ff:ff:ff:ff:ff:ff, SA=00:00:00:00:00:2b, BSSID=00:00:00:00:00:2b, FragNumber=0, SeqNumber=0) ns3::LlcSnapHeader (type 0x806) ns3::ArpHeader (request source mac: 00-06-00:00:00:00:00:2b source ipv4: 10.0.0.43 dest ipv4: 10.0.0.31) ns3::WifiMacTrailer ()
r 0.00137881 /NodeList/33/DeviceList/0/$ns3::WifiNetDevice/Phy/State/RxOk ns3::WifiMacHeader (DATA ToDS=0, FromDS=0, MoreFrag=0, Retry=0, MoreData=0 Duration/ID=0us, DA=ff:ff:ff:ff:ff:ff, SA=00:00:00:00:00:2b, BSSID=00:00:00:00:00:2b, FragNumber=0, SeqNumber=0) ns3::LlcSnapHeader (type 0x806) ns3::ArpHeader (request source mac: 00-06-00:00:00:00:00:2b source ipv4: 10.0.0.43 dest ipv4: 10.0.0.31) ns3::WifiMacTrailer ()
r 0.00137881 /NodeList/51/DeviceList/0/$ns3::WifiNetDevice/Phy/State/RxOk ns3::WifiMacHeader (DATA ToDS=0, FromDS=0, MoreFrag=0, Retry=0, MoreData=0 Duration/ID=0us, DA=ff:ff:ff:ff:ff:ff, SA=00:00:00:00:00:2b, BSSID=00:00:00:00:00:2b, FragNumber=0, SeqNumber=0) ns3::LlcSnapHeader (type 0x806) ns3::ArpHeader (request source mac: 00-06-00:00:00:00:00:2b source ipv4: 10.0.0.43 dest ipv4: 10.0.0.31) ns3::WifiMacTrailer ()
r 0.00137881 /NodeList/53/DeviceList/0/$ns3::WifiNetDevice/Phy/State/RxOk ns3::WifiMacHeader (DATA ToDS=0, FromDS=0, MoreFrag=0, Retry=0, MoreData=0 Duration/ID=0us, DA=ff:ff:ff:ff:ff:ff, SA=00:00:00:00:00:2b, BSSID=00:00:00:00:00:2b, FragNumber=0, SeqNumber=0) ns3::LlcSnapHeader (type 0x806) ns3::ArpHeader (request source mac: 00-06-00:00:00:00:00:2b source ipv4: 10.0.0.43 dest ipv4: 10.0.0.31) ns3::WifiMacTrailer ()
r 0.00137881 /NodeList/55/DeviceList/0/$ns3::WifiNetDevice/Phy/State/RxOk ns3::WifiMacHeader (DATA ToDS=0, FromDS=0, MoreFrag=0, Retry=0, MoreData=0 Duration/ID=0us, DA=ff:ff:ff:ff:ff:ff, SA=00:00:00:00:00:43, BSSID=00:00:00:00:00:43, FragNumber=0, SeqNumber=0) ns3::LlcSnapHeader (type 0x806) ns3::ArpHeader (request source mac: 00-06-00:00:00:00:00:43 source ipv4: 10.0.0.67 dest ipv4: 10.0.0.68) ns3::WifiMacTrailer ()
r 0.00137881 /NodeList/57/DeviceList/0/$ns3::WifiNetDevice/Phy/State/RxOk ns3::WifiMacHeader (DATA ToDS=0, FromDS=0, MoreFrag=0, Retry=0, MoreData=0 Duration/ID=0us, DA=ff:ff:ff:ff:ff:ff, SA=00:00:00:00:00:43, BSSID=00:00:00:00:00:43, FragNumber=0, SeqNumber=0) ns3::LlcSnapHeader (type 0x806) ns3::ArpHeader (request source mac: 00-06-00:00:00:00:00:43 source ipv4: 10.0.0.67 dest ipv4: 10.0.0.68) ns3::WifiMacTrailer ()
r 0.00137881 /NodeList/75/DeviceList/0/$ns3::WifiNetDevice/Phy/State/RxOk ns3::WifiMacHeader (DATA ToDS=0, FromDS=0, MoreFrag=0, Retry=0, MoreData=0 Duration/ID=0us, DA=ff:ff:ff:ff:ff:ff, SA=00:00:00:00:00:43, BSSID=00:00:00:00:00:43, FragNumber=0, SeqNumber=0) ns3::LlcSnapHeader (type 0x806) ns3::ArpHeader (request source mac: 00-06-00:00:00:00:00:43 source ipv4: 10.0.0.67 dest ipv4: 10.0.0.68) ns3::WifiMacTrailer ()
r 0.00137881 /NodeList/77/DeviceList/0/$ns3::WifiNetDevice/Phy/State/RxOk ns3::WifiMacHeader (DATA ToDS=0, FromDS=0, MoreFrag=0, Retry=0, MoreData=0 Duration/ID=0us, DA=ff:ff:ff:ff:ff:ff, SA=00:00:00:00:00:43, BSSID=00:00:00:00:00:43, FragNumber=0, SeqNumber=0) ns3::LlcSnapHeader (type 0x806) ns3::ArpHeader (request source mac: 00-06-00:00:00:00:00:43 source ipv4: 10.0.0.67 dest ipv4: 10.0.0.68) ns3::WifiMacTrailer ()
r 0.00137887 /NodeList/22/DeviceList/0/$ns3::WifiNetDevice/Phy/State/RxOk ns3::WifiMacHeader (DATA ToDS=0, FromDS=0, MoreFrag=0, Retry=0, MoreData=0 Duration/ID=0us, DA=ff:ff:ff:ff:ff:ff, SA=00:00:00:00:00:2b, BSSID=00:00:00:00:00:2b, FragNumber=0, SeqNumber=0) ns3::LlcSnapHeader (type 0x806) ns3::ArpHeader (request source mac: 00-06-00:00:00:00:00:2b source ipv4: 10.0.0.43 dest ipv4: 10.0.0.31) ns3::WifiMacTrailer ()
r 0.00137887 /NodeList/40/DeviceList/0/$ns3::WifiNetDevice/Phy/State/RxOk ns3::WifiMacHeader (DATA ToDS=0, FromDS=0, MoreFrag=0, Retry=0, MoreData=0 Duration/ID=0us, DA=ff:ff:ff:ff:ff:ff, SA=00:00:00:00:00:2b, BSSID=00:00:00:00:00:2b, FragNumber=0, SeqNumber=0) ns3::LlcSnapHeader (type 0x806) ns3::ArpHeader (request source mac: 00-06-00:00:00:00:00:2b source ipv4: 10.0.0.43 dest ipv4: 10.0.0.31) ns3::WifiMacTrailer ()
r 0.00137887 /NodeList/44/DeviceList/0/$ns3::WifiNetDevice/Phy/State/RxOk ns3::WifiMacHeader (DATA ToDS=0, FromDS=0, MoreFrag=0, Retry=0, MoreData=0 Duration/ID=0us, DA=ff:ff:ff:ff:ff:ff, SA=00:00:00:00:00:2b, BSSID=00:00:00:00:00:2b, FragNumber=0, SeqNumber=0) ns3::LlcSnapHeader (type 0x806) ns3::ArpHeader (request source mac: 00-06-00:00:00:00:00:2b source ipv4: 10.0.0.43 dest ipv4: 10.0.0.31) ns3::WifiMacTrailer ()
r 0.00137887 /NodeList/62/DeviceList/0/$ns3::WifiNetDevice/Phy/State/RxOk ns3::WifiMacHeader (DATA ToDS=0, FromDS=0, MoreFrag=0, Retry=0, MoreData=0 Duration/ID=0us, DA=ff:ff:ff:ff:ff:ff, SA=00:00:00:00:00:2b, BSSID=00:00:00:00:00:2b, FragNumber=0, SeqNumber=0) ns3::LlcSnapHeader (type 0x806) ns3::ArpHeader (request source mac: 00-06-00:00:00:00:00:2b source ipv4: 10.0.0.43 dest ipv4: 10.0.0.31) ns3::WifiMacTrailer ()
r 0.00137887 /NodeList/46/DeviceList/0/$ns3::WifiNetDevice/Phy/State/RxOk ns3::WifiMacHeader (DATA ToDS=0, FromDS=0, MoreFrag=0, Retry=0, MoreData=0 Duration/ID=0us, DA=ff:ff:ff:ff:ff:ff, SA=00:00:00:00:00:43, BSSID=00:00:00:00:00:43, FragNumber=0, SeqNumber=0) ns3::LlcSnapHeader (type 0x806) ns3::ArpHeader (request source mac: 00-06-00:00:00:00:00:43 source ipv4: 10.0.0.67 dest ipv4: 10.0.0.68) ns3::WifiMacTrailer ()
r 0.00137887 /NodeList/64/DeviceList/0/$ns3::WifiNetDevice/Phy/State/RxOk ns3::WifiMacHeader (DATA ToDS=0, FromDS=0, MoreFrag=0, Retry=0, MoreData=0 Duration/ID=0us, DA=ff:ff:ff:ff:ff:ff, SA=00:00:00:00:00:43, BSSID=00:00:00:00:00:43, FragNumber=0, SeqNumber=0) ns3::LlcSnapHeader (type 0x806) ns3::ArpHeader (request source mac: 00-06-00:00:00:00:00:43 source ipv4: 10.0.0.67 dest ipv4: 10.0.0.68) ns3::WifiMacTrailer ()
r 0.00137887 /NodeList/68/DeviceList/0/$ns3::WifiNetDevice/Phy/State/RxOk ns3::WifiMacHeader (DATA ToDS=0, FromDS=0, MoreFrag=0, Retry=0, MoreData=0 Duration/ID=0us, DA=ff:ff:ff:ff:ff:ff, SA=00:00:00:00:00:43, BSSID=00:00:00:00:00:43, FragNumber=0, SeqNumber=0) ns3::LlcSnapHeader (type 0x806) ns3::ArpHeader (request source mac: 00-06-00:00:00:00:00:43 source ipv4: 10.0.0.67 dest ipv4: 10.0.0.68) ns3::WifiMacTrailer ()
r 0.00137887 /NodeList/86/DeviceList/0/$ns3::WifiNetDevice/Phy/State/RxOk ns3::WifiMacHeader (DATA ToDS=0, FromDS=0, MoreFrag=0, Retry=0, MoreData=0 Duration/ID=0us, DA=ff:ff:ff:ff:ff:ff, SA=00:00:00:00:00:43, BSSID=00:00:00:00:00:43, FragNumber=0, SeqNumber=0) ns3::LlcSnapHeader (type 0x806) ns3::ArpHeader (request source mac: 00-06-00:00:00:00:00:43 source ipv4: 10.0.0.67 dest ipv4: 10.0.0.68) ns3::WifiMacTrailer ()
r 0.00137889 /NodeList/21/DeviceList/0/$ns3::WifiNetDevice/Phy/State/RxOk ns3::WifiMacHeader (DATA ToDS=0, FromDS=0, MoreFrag=0, Retry=0, MoreData=0 Duration/ID=0us, DA=ff:ff:ff:ff:ff:ff, SA=00:00:00:00:00:2b, BSSID=00:00:00:00:00:2b, FragNumber=0, SeqNumber=0) ns3::LlcSnapHeader (type 0x806) ns3::ArpHeader (request source mac: 00-06-00:00:00:00:00:2b source ipv4: 10.0.0.43 dest ipv4: 10.0.0.31) ns3::WifiMacTrailer ()
r 0.00137889 /NodeList/23/DeviceList/0/$ns3::WifiNetDevice/Phy/State/RxOk ns3::WifiMacHeader (DATA ToDS=0, FromDS=0, MoreFrag=0, Retry=0, MoreData=0 Duration/ID=0us, DA=ff:ff:ff:ff:ff:ff, SA=00:00:00:00:00:2b, BSSID=00:00:00:00:00:2b, FragNumber=0, SeqNumber=0) ns3::LlcSnapHeader (type 0x806) ns3::ArpHeader (request source mac: 00-06-00:00:00:00:00:2b source ipv4: 10.0.0.43 dest ipv4: 10.0.0.31) ns3::WifiMacTrailer ()
r 0.00137889 /NodeList/30/DeviceList/0/$ns3::WifiNetDevice/Phy/State/RxOk ns3::WifiMacHeader (DATA ToDS=0, FromDS=0, MoreFrag=0, Retry=0, MoreData=0 Duration/ID=0us, DA=ff:ff:ff:ff:ff:ff, SA=00:00:00:00:00:2b, BSSID=00:00:00:00:00:2b, FragNumber=0, SeqNumber=0) ns3::LlcSnapHeader (type 0x806) ns3::ArpHeader (request source mac: 00-06-00:00:00:00:00:2b source ipv4: 10.0.0.43 dest ipv4: 10.0.0.31) ns3::WifiMacTrailer ()
r 0.00137889 /NodeList/34/DeviceList/0/$ns3::WifiNetDevice/Phy/State/RxOk ns3::WifiMacHeader (DATA ToDS=0, FromDS=0, MoreFrag=0, Retry=0, MoreData=0 Duration/ID=0us, DA=ff:ff:ff:ff:ff:ff, SA=00:00:00:00:00:2b, BSSID=00:00:00:00:00:2b, FragNumber=0, SeqNumber=0) ns3::LlcSnapHeader (type 0x806) ns3::ArpHeader (request source mac: 00-06-00:00:00:00:00:2b source ipv4: 10.0.0.43 dest ipv4: 10.0.0.31) ns3::WifiMacTrailer ()
r 0.00137889 /NodeList/50/DeviceList/0/$ns3::WifiNetDevice/Phy/State/RxOk ns3::WifiMacHeader (DATA ToDS=0, FromDS=0, MoreFrag=0, Retry=0, MoreData=0 Duration/ID=0us, DA=ff:ff:ff:ff:ff:ff, SA=00:00:00:00:00:2b, BSSID=00:00:00:00:00:2b, FragNumber=0, SeqNumber=0) ns3::LlcSnapHeader (type 0x806) ns3::ArpHeader (request source mac: 00-06-00:00:00:00:00:2b source ipv4: 10.0.0.43 dest ipv4: 10.0.0.31) ns3::WifiMacTrailer ()
r 0.00137889 /NodeList/61/DeviceList/0/$ns3::WifiNetDevice/Phy/State/RxOk ns3::WifiMacHeader (DATA ToDS=0, FromDS=0, MoreFrag=0, Retry=0, MoreData=0 Duration/ID=0us, DA=ff:ff:ff:ff:ff:ff, SA=00:00:00:00:00:2b, BSSID=00:00:00:00:00:2b, FragNumber=0, SeqNumber=0) ns3::LlcSnapHeader (type 0x806) ns3::ArpHeader (request source mac: 00-06-00:00:00:00:00:2b source ipv4: 10.0.0.43 dest ipv4: 10.0.0.31) ns3::WifiMacTrailer ()
r 0.00137889 /NodeList/45/DeviceList/0/$ns3::WifiNetDevice/Phy/State/RxOk ns3::WifiMacHeader (DATA ToDS=0, FromDS=0, MoreFrag=0, Retry=0, MoreData=0 Duration/ID=0us, DA=ff:ff:ff:ff:ff:ff, SA=00:00:00:00:00:43, BSSID=00:00:00:00:00:43, FragNumber=0, SeqNumber=0) ns3::LlcSnapHeader (type 0x806) ns3::ArpHeader (request source mac: 00-06-00:00:00:00:00:43 source ipv4: 10.0.0.67 dest ipv4: 10.0.0.68) ns3::WifiMacTrailer ()
r 0.00137889 /NodeList/47/DeviceList/0/$ns3::WifiNetDevice/Phy/State/RxOk ns3::WifiMacHeader (DATA ToDS=0, FromDS=0, MoreFrag=0, Retry=0, MoreData=0 Duration/ID=0us, DA=ff:ff:ff:ff:ff:ff, SA=00:00:00:00:00:43, BSSID=00:00:00:00:00:43, FragNumber=0, SeqNumber=0) ns3::LlcSnapHeader (type 0x806) ns3::ArpHeader (request source mac: 00-06-00:00:00:00:00:43 source ipv4: 10.0.0.67 dest ipv4: 10.0.0.68) ns3::WifiMacTrailer ()
r 0.00137889 /NodeList/58/DeviceList/0/$ns3::WifiNetDevice/Phy/State/RxOk ns3::WifiMacHeader (DATA ToDS=0, FromDS=0, MoreFrag=0, Retry=0, MoreData=0 Duration/ID=0us, DA=ff:ff:ff:ff:ff:ff, SA=00:00:00:00:00:43, BSSID=00:00:00:00:00:43, FragNumber=0, SeqNumber=0) ns3::LlcSnapHeader (type 0x806) ns3::ArpHeader (request source mac: 00-06-00:00:00:00:00:43 source ipv4: 10.0.0.67 dest ipv4: 10.0.0.68) ns3::WifiMacTrailer ()
r 0.00137889 /NodeList/74/DeviceList/0/$ns3::WifiNetDevice/Phy/State/RxOk ns3::WifiMacHeader (DATA ToDS=0, FromDS=0, MoreFrag=0, Retry=0, MoreData=0 Duration/ID=0us, DA=ff:ff:ff:ff:ff:ff, SA=00:00:00:00:00:43, BSSID=00:00:00:00:00:43, FragNumber=0, SeqNumber=0) ns3::LlcSnapHeader (type 0x806) ns3::ArpHeader (request source mac: 00-06-00:00:00:00:00:43 source ipv4: 10.0.0.67 dest ipv4: 10.0.0.68) ns3::WifiMacTrailer ()
r 0.00137889 /NodeList/78/DeviceList/0/$ns3::WifiNetDevice/Phy/State/RxOk ns3::WifiMacHeader (DATA ToDS=0, FromDS=0, MoreFrag=0, Retry=0, MoreData=0 Duration/ID=0us, DA=ff:ff:ff:ff:ff:ff, SA=00:00:00:00:00:43, BSSID=00:00:00:00:00:43, FragNumber=0, SeqNumber=0) ns3::LlcSnapHeader (type 0x806) ns3::ArpHeader (request source mac: 00-06-00:00:00:00:00:43 source ipv4: 10.0.0.67 dest ipv4: 10.0.0.68) ns3::WifiMacTrailer ()
r 0.00137889 /NodeList/85/DeviceList/0/$ns3::WifiNetDevice/Phy/State/RxOk ns3::WifiMacHeader (DATA ToDS=0, FromDS=0, MoreFrag=0, Retry=0, MoreData=0 Duration/ID=0us, DA=ff:ff:ff:ff:ff:ff, SA=00:00:00:00:00:43, BSSID=00:00:00:00:00:43, FragNumber=0, SeqNumber=0) ns3::LlcSnapHeader (type 0x806) ns3::ArpHeader (request source mac: 00-06-00:00:00:00:00:43 source ipv4: 10.0.0.67 dest ipv4: 10.0.0.68) ns3::WifiMacTrailer ()
r 0.00137889 /NodeList/87/DeviceList/0/$ns3::WifiNetDevice/Phy/State/RxOk ns3::WifiMacHeader (DATA ToDS=0, FromDS=0, MoreFrag=0, Retry=0, MoreData=0 Duration/ID=0us, DA=ff:ff:ff:ff:ff:ff, SA=00:00:00:00:00:43, BSSID=00:00:00:00:00:43, FragNumber=0, SeqNumber=0) ns3::LlcSnapHeader (type 0x806) ns3::ArpHeader (request source mac: 00-06-00:00:00:00:00:43 source ipv4: 10.0.0.67 dest ipv4: 10.0.0.68) ns3::WifiMacTrailer ()
r 0.00137895 /NodeList/20/DeviceList/0/$ns3::WifiNetDevice/Phy/State/RxOk ns3::WifiMacHeader (DATA ToDS=0, FromDS=0, MoreFrag=0, Retry=0, MoreData=0 Duration/ID=0us, DA=ff:ff:ff:ff:ff:ff, SA=00:00:00:00:00:2b, BSSID=00:00:00:00:00:2b, FragNumber=0, SeqNumber=0) ns3::LlcSnapHeader (type 0x806) ns3::ArpHeader (request source mac: 00-06-00:00:00:00:00:2b source ipv4: 10.0.0.43 dest ipv4: 10.0.0.31) ns3::WifiMacTrailer ()
r 0.00137895 /NodeList/60/DeviceList/0/$ns3::WifiNetDevice/Phy/State/RxOk ns3::WifiMacHeader (DATA ToDS=0, FromDS=0, MoreFrag=0, Retry=0, MoreData=0 Duration/ID=0us, DA=ff:ff:ff:ff:ff:ff, SA=00:00:00:00:00:2b, BSSID=00:00:00:00:00:2b, FragNumber=0, SeqNumber=0) ns3::LlcSnapHeader (type 0x806) ns3::ArpHeader (request source mac: 00-06-00:00:00:00:00:2b source ipv4: 10.0.0.43 dest ipv4: 10.0.0.31) ns3::WifiMacTrailer ()
r 0.00137895 /NodeList/48/DeviceList/0/$ns3::WifiNetDevice/Phy/State/RxOk ns3::WifiMacHeader (DATA ToDS=0, FromDS=0, MoreFrag=0, Retry=0, MoreData=0 Duration/ID=0us, DA=ff:ff:ff:ff:ff:ff, SA=00:00:00:00:00:43, BSSID=00:00:00:00:00:43, FragNumber=0, SeqNumber=0) ns3::LlcSnapHeader (type 0x806) ns3::ArpHeader (request source mac: 00-06-00:00:00:00:00:43 source ipv4: 10.0.0.67 dest ipv4: 10.0.0.68) ns3::WifiMacTrailer ()
r 0.00137895 /NodeList/88/DeviceList/0/$ns3::WifiNetDevice/Phy/State/RxOk ns3::WifiMacHeader (DATA ToDS=0, FromDS=0, MoreFrag=0, Retry=0, MoreData=0 Duration/ID=0us, DA=ff:ff:ff:ff:ff:ff, SA=00:00:00:00:00:43, BSSID=00:00:00:00:00:43, FragNumber=0, SeqNumber=0) ns3::LlcSnapHeader (type 0x806) ns3::ArpHeader (request source mac: 00-06-00:00:00:00:00:43 source ipv4: 10.0.0.67 dest ipv4: 10.0.0.68) ns3::WifiMacTrailer ()
r 0.00137897 /NodeList/12/DeviceList/0/$ns3::WifiNetDevice/Phy/State/RxOk ns3::WifiMacHeader (DATA ToDS=0, FromDS=0, MoreFrag=0, Retry=0, MoreData=0 Duration/ID=0us, DA=ff:ff:ff:ff:ff:ff, SA=00:00:00:00:00:2b, BSSID=00:00:00:00:00:2b, FragNumber=0, SeqNumber=0) ns3::LlcSnapHeader (type 0x806) ns3::ArpHeader (request source mac: 00-06-00:00:00:00:00:2b source ipv4: 10.0.0.43 dest ipv4: 10.0.0.31) ns3::WifiMacTrailer ()
r 0.00137897 /NodeList/69/DeviceList/0/$ns3::WifiNetDevice/Phy/State/RxOk ns3::WifiMacHeader (DATA ToDS=0, FromDS=0, MoreFrag=0, Retry=0, MoreData=0 Duration/ID=0us, DA=ff:ff:ff:ff:ff:ff, SA=00:00:00:00:00:43, BSSID=00:00:00:00:00:43, FragNumber=0, SeqNumber=0) ns3::LlcSnapHeader (type 0x806) ns3::ArpHeader (request source mac: 00-06-00:00:00:00:00:43 source ipv4: 10.0.0.67 dest ipv4: 10.0.0.68) ns3::WifiMacTrailer ()
r 0.00137897 /NodeList/96/DeviceList/0/$ns3::WifiNetDevice/Phy/State/RxOk ns3::WifiMacHeader (DATA ToDS=0, FromDS=0, MoreFrag=0, Retry=0, MoreData=0 Duration/ID=0us, DA=ff:ff:ff:ff:ff:ff, SA=00:00:00:00:00:43, BSSID=00:00:00:00:00:43, FragNumber=0, SeqNumber=0) ns3::LlcSnapHeader (type 0x806) ns3::ArpHeader (request source mac: 00-06-00:00:00:00:00:43 source ipv4: 10.0.0.67 dest ipv4: 10.0.0.68) ns3::WifiMacTrailer ()
r 0.00137898 /NodeList/11/DeviceList/0/$ns3::WifiNetDevice/Phy/State/RxOk ns3::WifiMacHeader (DATA ToDS=0, FromDS=0, MoreFrag=0, Retry=0, MoreData=0 Duration/ID=0us, DA=ff:ff:ff:ff:ff:ff, SA=00:00:00:00:00:2b, BSSID=00:00:00:00:00:2b, FragNumber=0, SeqNumber=0) ns3::LlcSnapHeader (type 0x806) ns3::ArpHeader (request source mac: 00-06-00:00:00:00:00:2b source ipv4: 10.0.0.43 dest ipv4: 10.0.0.31) ns3::WifiMacTrailer ()
r 0.00137898 /NodeList/59/DeviceList/0/$ns3::WifiNetDevice/Phy/State/RxOk ns3::WifiMacHeader (DATA ToDS=0, FromDS=0, MoreFrag=0, Retry=0, MoreData=0 Duration/ID=0us, DA=ff:ff:ff:ff:ff:ff, SA=00:00:00:00:00:43, BSSID=00:00:00:00:00:43, FragNumber=0, SeqNumber=0) ns3::LlcSnapHeader (type 0x806) ns3::ArpHeader (request source mac: 00-06-00:00:00:00:00:43 source ipv4: 10.0.0.67 dest ipv4: 10.0.0.68) ns3::WifiMacTrailer ()
r 0.00137898 /NodeList/79/DeviceList/0/$ns3::WifiNetDevice/Phy/State/RxOk ns3::WifiMacHeader (DATA ToDS=0, FromDS=0, MoreFrag=0, Retry=0, MoreData=0 Duration/ID=0us, DA=ff:ff:ff:ff:ff:ff, SA=00:00:00:00:00:43, BSSID=00:00:00:00:00:43, FragNumber=0, SeqNumber=0) ns3::LlcSnapHeader (type 0x806) ns3::ArpHeader (request source mac: 00-06-00:00:00:00:00:43 source ipv4: 10.0.0.67 dest ipv4: 10.0.0.68) ns3::WifiMacTrailer ()
r 0.00137898 /NodeList/97/DeviceList/0/$ns3::WifiNetDevice/Phy/State/RxOk ns3::WifiMacHeader (DATA ToDS=0, FromDS=0, MoreFrag=0, Retry=0, MoreData=0 Duration/ID=0us, DA=ff:ff:ff:ff:ff:ff, SA=00:00:00:00:00:43, BSSID=00:00:00:00:00:43, FragNumber=0, SeqNumber=0) ns3::LlcSnapHeader (type 0x806) ns3::ArpHeader (request source mac: 00-06-00:00:00:00:00:43 source ipv4: 10.0.0.67 dest ipv4: 10.0.0.68) ns3::WifiMacTrailer ()
t 0.0014222 /NodeList/67/DeviceList/0/$ns3::WifiNetDevice/Phy/State/Tx ns3::WifiMacHeader (DATA ToDS=0, FromDS=0, MoreFrag=0, Retry=0, MoreData=0 Duration/ID=48us, DA=00:00:00:00:00:43, SA=00:00:00:00:00:44, BSSID=00:00:00:00:00:44, FragNumber=0, SeqNumber=0) ns3::LlcSnapHeader (type 0x806) ns3::ArpHeader (reply source mac: 00-06-00:00:00:00:00:44 source ipv4: 10.0.0.68 dest mac: 00-06-00:00:00:00:00:43 dest ipv4: 10.0.0.67) ns3::WifiMacTrailer ()
t 0.00147589 /NodeList/30/DeviceList/0/$ns3::WifiNetDevice/Phy/State/Tx ns3::WifiMacHeader (DATA ToDS=0, FromDS=0, MoreFrag=0, Retry=0, MoreData=0 Duration/ID=48us, DA=00:00:00:00:00:2b, SA=00:00:00:00:00:1f, BSSID=00:00:00:00:00:1f, FragNumber=0, SeqNumber=0) ns3::LlcSnapHeader (type 0x806) ns3::ArpHeader (reply source mac: 00-06-00:00:00:00:00:1f source ipv4: 10.0.0.31 dest mac: 00-06-00:00:00:00:00:2b dest ipv4: 10.0.0.43) ns3::WifiMacTrailer ()
t 0.0016802 /NodeList/67/DeviceList/0/$ns3::WifiNetDevice/Phy/State/Tx ns3::WifiMacHeader (CTL_RTS Duration/ID=156us, RA=00:00:00:00:00:43, TA=00:00:00:00:00:44) ns3::WifiMacTrailer ()
r 0.0017323 /NodeList/57/DeviceList/0/$ns3::WifiNetDevice/Phy/State/RxOk ns3::WifiMacHeader (CTL_RTS Duration/ID=156us, RA=00:00:00:00:00:43, TA=00:00:00:00:00:44) ns3::WifiMacTrailer ()
r 0.0017323 /NodeList/66/DeviceList/0/$ns3::WifiNetDevice/Phy/State/RxOk ns3::WifiMacHeader (CTL_RTS Duration/ID=156us, RA=00:00:00:00:00:43, TA=00:00:00:00:00:44) ns3::WifiMacTrailer ()
r 0.0017323 /NodeList/68/DeviceList/0/$ns3::WifiNetDevice/Phy/State/RxOk ns3::WifiMacHeader (CTL_RTS Duration/ID=156us, RA=00:00:00:00:00:43, TA=00:00:00:00:00:44) ns3::WifiMacTrailer ()
r 0.0017323 /NodeList/77/DeviceList/0/$ns3::WifiNetDevice/Phy/State/RxOk ns3::WifiMacHeader (CTL_RTS Duration/ID=156us, RA=00:00:00:00:00:43, TA=00:00:00:00:00:44) ns3::WifiMacTrailer ()
r 0.00173234 /NodeList/56/DeviceList/0/$ns3::WifiNetDevice/Phy/State/RxOk ns3::WifiMacHeader (CTL_RTS Duration/ID=156us, RA=00:00:00:00:00:43, TA=00:00:00:00:00:44) ns3::WifiMacTrailer ()
r 0.00173234 /NodeList/58/DeviceList/0/$ns3::WifiNetDevice/Phy/State/RxOk ns3::WifiMacHeader (CTL_RTS Duration/ID=156us, RA=00:00:00:00:00:43, TA=00:00:00:00:00:44) ns3::WifiMacTrailer ()
r 0.00173234 /NodeList/76/DeviceList/0/$ns3::WifiNetDevice/Phy/State/RxOk ns3::WifiMacHeader (CTL_RTS Duration/ID=156us, RA=00:00:00:00:00:43, TA=00:00:00:00:00:44) ns3::WifiMacTrailer ()
r 0.00173234 /NodeList/78/DeviceList/0/$ns3::WifiNetDevice/Phy/State/RxOk ns3::WifiMacHeader (CTL_RTS Duration/ID=156us, RA=00:00:00:00:00:43, TA=00:00:00:00:00:44) ns3::WifiMacTrailer ()
r 0.0017324 /NodeList/47/DeviceList/0/$ns3::WifiNetDevice/Phy/State/RxOk ns3::WifiMacHeader (CTL_RTS Duration/ID=156us, RA=00:00:00:00:00:43, TA=00:00:00:00:00:44) ns3::WifiMacTrailer ()
r 0.0017324 /NodeList/65/DeviceList/0/$ns3::WifiNetDevice/Phy/State/RxOk ns3::WifiMacHeader (CTL_RTS Duration/ID=156us, RA=00:00:00:00:00:43, TA=00:00:00:00:00:44) ns3::WifiMacTrailer ()
r 0.0017324 /NodeList/69/DeviceList/0/$ns3::WifiNetDevice/Phy/State/RxOk ns3::WifiMacHeader (CTL_RTS Duration/ID=156us, RA=00:00:00:00:00:43, TA=00:00:00:00:00:44) ns3::WifiMacTrailer ()
r 0.0017324 /NodeList/87/DeviceList/0/$ns3::WifiNetDevice/Phy/State/RxOk ns3::WifiMacHeader (CTL_RTS Duration/ID=156us, RA=00:00:00:00:00:43, TA=00:00:00:00:00:44) ns3::WifiMacTrailer ()
r 0.00173243 /NodeList/46/DeviceList/0/$ns3::WifiNetDevice/Phy/State/RxOk ns3::WifiMacHeader (CTL_RTS Duration/ID=156us, RA=00:00:00:00:00:43, TA=00:00:00:00:00:44) ns3::WifiMacTrailer ()
r 0.00173243 /NodeList/48/DeviceList/0/$ns3::WifiNetDevice/Phy/State/RxOk ns3::WifiMacHeader (CTL_RTS Duration/ID=156us, RA=00:00:00:00:00:43, TA=00:00:00:00:00:44) ns3::WifiMacTrailer ()
r 0.00173243 /NodeList/55/DeviceList/0/$ns3::WifiNetDevice/Phy/State/RxOk ns3::WifiMacHeader (CTL_RTS Duration/ID=156us, RA=00:00:00:00:00:43, TA=00:00:00:00:00:44) ns3::WifiMacTrailer ()
r 0.00173243 /NodeList/59/DeviceList/0/$ns3::WifiNetDevice/Phy/State/RxOk ns3::WifiMacHeader (CTL_RTS Duration/ID=156us, RA=00:00:00:00:00:43, TA=00:00:00:00:00:44) ns3::WifiMacTrailer ()
r 0.00173243 /NodeList/75/DeviceList/0/$ns3::WifiNetDevice/Phy/State/RxOk ns3::WifiMacHeader (CTL_RTS Duration/ID=156us, RA=00:00:00:00:00:43, TA=00:00:00:00:00:44) ns3::WifiMacTrailer ()
r 0.00173243 /NodeList/79/DeviceList/0/$ns3::WifiNetDevice/Phy/State/RxOk ns3::WifiMacHeader (CTL_RTS Duration/ID=156us, RA=00:00:00:00:00:43, TA=00:00:00:00:00:44) ns3::WifiMacTrailer ()
r 0.00173243 /NodeList/86/DeviceList/0/$ns3::WifiNetDevice/Phy/State/RxOk ns3::WifiMacHeader (CTL_RTS Duration/ID=156us, RA=00:00:00:00:00:43, TA=00:00:00:00:00:44) ns3::WifiMacTrailer ()
r 0.00173243 /NodeList/88/DeviceList/0/$ns3::WifiNetDevice/Phy/State/RxOk ns3::WifiMacHeader (CTL_RTS Duration/ID=156us, RA=00:00:00:00:00:43, TA=00:00:00:00:00:44) ns3::WifiMacTrailer ()
r 0.00173249 /NodeList/45/DeviceList/0/$ns3::WifiNetDevice/Phy/State/RxOk ns3::WifiMacHeader (CTL_RTS Duration/ID=156us, RA=00:00:00:00:00:43, TA=00:00:00:00:00:44) ns3::WifiMacTrailer ()
r 0.00173249 /NodeList/49/DeviceList/0/$ns3::WifiNetDevice/Phy/State/RxOk ns3::WifiMacHeader (CTL_RTS Duration/ID=156us, RA=00:00:00:00:00:43, TA=00:00:00:00:00:44) ns3::WifiMacTrailer ()
r 0.00173249 /NodeList/85/DeviceList/0/$ns3::WifiNetDevice/Phy/State/RxOk ns3::WifiMacHeader (CTL_RTS Duration/ID=156us, RA=00:00:00:00:00:43, TA=00:00:00:00:00:44) ns3::WifiMacTrailer ()
r 0.00173249 /NodeList/89/DeviceList/0/$ns3::WifiNetDevice/Phy/State/RxOk ns3::WifiMacHeader (CTL_RTS Duration/ID=156us, RA=00:00:00:00:00:43, TA=00:00:00:00:00:44) ns3::WifiMacTrailer ()
r 0.0017325 /NodeList/37/DeviceList/0/$ns3::WifiNetDevice/Phy/State/RxOk ns3::WifiMacHeader (CTL_RTS Duration/ID=156us, RA=00:00:00:00:00:43, TA=00:00:00:00:00:44) ns3::WifiMacTrailer ()
r 0.0017325 /NodeList/64/DeviceList/0/$ns3::WifiNetDevice/Phy/State/RxOk ns3::WifiMacHeader (CTL_RTS Duration/ID=156us, RA=00:00:00:00:00:43, TA=00:00:00:00:00:44) ns3::WifiMacTrailer ()
r 0.0017325 /NodeList/97/DeviceList/0/$ns3::WifiNetDevice/Phy/State/RxOk ns3::WifiMacHeader (CTL_RTS Duration/ID=156us, RA=00:00:00:00:00:43, TA=00:00:00:00:00:44) ns3::WifiMacTrailer ()
r 0.00173252 /NodeList/36/DeviceList/0/$ns3::WifiNetDevice/Phy/State/RxOk ns3::WifiMacHeader (CTL_RTS Duration/ID=156us, RA=00:00:00:00:00:43, TA=00:00:00:00:00:44) ns3::WifiMacTrailer ()
r 0.00173252 /NodeList/38/DeviceList/0/$ns3::WifiNetDevice/Phy/State/RxOk ns3::WifiMacHeader (CTL_RTS Duration/ID=156us, RA=00:00:00:00:00:43, TA=00:00:00:00:00:44) ns3::WifiMacTrailer ()
r 0.00173252 /NodeList/54/DeviceList/0/$ns3::WifiNetDevice/Phy/State/RxOk ns3::WifiMacHeader (CTL_RTS Duration/ID=156us, RA=00:00:00:00:00:43, TA=00:00:00:00:00:44) ns3::WifiMacTrailer ()
r 0.00173252 /NodeList/74/DeviceList/0/$ns3::WifiNetDevice/Phy/State/RxOk ns3::WifiMacHeader (CTL_RTS Duration/ID=156us, RA=00:00:00:00:00:43, TA=00:00:00:00:00:44) ns3::WifiMacTrailer ()
r 0.00173252 /NodeList/96/DeviceList/0/$ns3::WifiNetDevice/Phy/State/RxOk ns3::WifiMacHeader (CTL_RTS Duration/ID=156us, RA=00:00:00:00:00:43, TA=00:00:00:00:00:44) ns3::WifiMacTrailer ()
r 0.00173252 /NodeList/98/DeviceList/0/$ns3::WifiNetDevice/Phy/State/RxOk ns3::WifiMacHeader (CTL_RTS Duration/ID=156us, RA=00:00:00:00:00:43, TA=00:00:00:00:00:44) ns3::WifiMacTrailer ()
r 0.00173256 /NodeList/95/DeviceList/0/$ns3::WifiNetDevice/Phy/State/RxOk ns3::WifiMacHeader (CTL_RTS Duration/ID=156us, RA=00:00:00:00:00:43, TA=00:00:00:00:00:44) ns3::WifiMacTrailer ()
t 0.0017483 /NodeList/66/DeviceList/0/$ns3::WifiNetDevice/Phy/State/Tx ns3::WifiMacHeader (CTL_CTS Duration/ID=96us, RA=00:00:00:00:00:44) ns3::WifiMacTrailer ()
r 0.0017924 /NodeList/56/DeviceList/0/$ns3::WifiNetDevice/Phy/State/RxOk ns3::WifiMacHeader (CTL_CTS Duration/ID=96us, RA=00:00:00:00:00:44) ns3::WifiMacTrailer ()
r 0.0017924 /NodeList/65/DeviceList/0/$ns3::WifiNetDevice/Phy/State/RxOk ns3::WifiMacHeader (CTL_CTS Duration/ID=96us, RA=00:00:00:00:00:44) ns3::WifiMacTrailer ()
r 0.0017924 /NodeList/67/DeviceList/0/$ns3::WifiNetDevice/Phy/State/RxOk ns3::WifiMacHeader (CTL_CTS Duration/ID=96us, RA=00:00:00:00:00:44) ns3::WifiMacTrailer ()
r 0.0017924 /NodeList/76/DeviceList/0/$ns3::WifiNetDevice/Phy/State/RxOk ns3::WifiMacHeader (CTL_CTS Duration/ID=96us, RA=00:00:00:00:00:44) ns3::WifiMacTrailer ()
r 0.00179244 /NodeList/55/DeviceList/0/$ns3::WifiNetDevice/Phy/State/RxOk ns3::WifiMacHeader (CTL_CTS Duration/ID=96us, RA=00:00:00:00:00:44) ns3::WifiMacTrailer ()
r 0.00179244 /NodeList/57/DeviceList/0/$ns3::WifiNetDevice/Phy/State/RxOk ns3::WifiMacHeader (CTL_CTS Duration/ID=96us, RA=00:00:00:00:00:44) ns3::WifiMacTrailer ()
r 0.00179244 /NodeList/75/DeviceList/0/$ns3::WifiNetDevice/Phy/State/RxOk ns3::WifiMacHeader (CTL_CTS Duration/ID=96us, RA=00:00:00:00:00:44) ns3::WifiMacTrailer ()