+ 2.33333 /NodeList/0/DeviceList/1/$ns3::PointToPointNetDevice/TxQueue/Enqueue ns3::PppHeader (Point-to-Point Protocol: IP (0x0021)) ns3::Ipv4Header (tos 0x0 DSCP Default ECN Not-ECT ttl 64 id 0 protocol 17 offset (bytes) 0 flags [none] length: 78 10.1.1.1 > 10.1.3.2) ns3::UdpHeader (length: 58 49153 > 9) Payload (size=50)
- 2.33333 /NodeList/0/DeviceList/1/$ns3::PointToPointNetDevice/TxQueue/Dequeue ns3::PppHeader (Point-to-Point Protocol: IP (0x0021)) ns3::Ipv4Header (tos 0x0 DSCP Default ECN Not-ECT ttl 64 id 0 protocol 17 offset (bytes) 0 flags [none] length: 78 10.1.1.1 > 10.1.3.2) ns3::UdpHeader (length: 58 49153 > 9) Payload (size=50)
r 2.33546 /NodeList/2/DeviceList/1/$ns3::PointToPointNetDevice/MacRx ns3::PppHeader (Point-to-Point Protocol: IP (0x0021)) ns3::Ipv4Header (tos 0x0 DSCP Default ECN Not-ECT ttl 64 id 0 protocol 17 offset (bytes) 0 flags [none] length: 78 10.1.1.1 > 10.1.3.2) ns3::UdpHeader (length: 58 49153 > 9) Payload (size=50)
+ 2.34446 /NodeList/2/DeviceList/3/$ns3::CsmaNetDevice/TxQueue/Enqueue ns3::EthernetHeader ( length/type=0x806, source=00:00:00:00:00:07, destination=ff:ff:ff:ff:ff:ff) ns3::ArpHeader (request source mac: 00-06-00:00:00:00:00:07 source ipv4: 10.250.1.1 dest ipv4: 10.250.1.4) Payload (size=18) ns3::EthernetTrailer (fcs=0)
- 2.34446 /NodeList/2/DeviceList/3/$ns3::CsmaNetDevice/TxQueue/Dequeue ns3::EthernetHeader ( length/type=0x806, source=00:00:00:00:00:07, destination=ff:ff:ff:ff:ff:ff) ns3::ArpHeader (request source mac: 00-06-00:00:00:00:00:07 source ipv4: 10.250.1.1 dest ipv4: 10.250.1.4) Payload (size=18) ns3::EthernetTrailer (fcs=0)
r 2.34656 /NodeList/3/DeviceList/1/$ns3::CsmaNetDevice/MacRx ns3::EthernetHeader ( length/type=0x806, source=00:00:00:00:00:07, destination=ff:ff:ff:ff:ff:ff) ns3::ArpHeader (request source mac: 00-06-00:00:00:00:00:07 source ipv4: 10.250.1.1 dest ipv4: 10.250.1.4) Payload (size=18) ns3::EthernetTrailer (fcs=0)
r 2.34656 /NodeList/4/DeviceList/1/$ns3::CsmaNetDevice/MacRx ns3::EthernetHeader ( length/type=0x806, source=00:00:00:00:00:07, destination=ff:ff:ff:ff:ff:ff) ns3::ArpHeader (request source mac: 00-06-00:00:00:00:00:07 source ipv4: 10.250.1.1 dest ipv4: 10.250.1.4) Payload (size=18) ns3::EthernetTrailer (fcs=0)
r 2.34656 /NodeList/5/DeviceList/2/$ns3::CsmaNetDevice/MacRx ns3::EthernetHeader ( length/type=0x806, source=00:00:00:00:00:07, destination=ff:ff:ff:ff:ff:ff) ns3::ArpHeader (request source mac: 00-06-00:00:00:00:00:07 source ipv4: 10.250.1.1 dest ipv4: 10.250.1.4) Payload (size=18) ns3::EthernetTrailer (fcs=0)
+ 2.34656 /NodeList/5/DeviceList/2/$ns3::CsmaNetDevice/TxQueue/Enqueue ns3::EthernetHeader ( length/type=0x806, source=00:00:00:00:00:0a, destination=00:00:00:00:00:07) ns3::ArpHeader (reply source mac: 00-06-00:00:00:00:00:0a source ipv4: 10.250.1.4 dest mac: 00-06-00:00:00:00:00:07 dest ipv4: 10.250.1.1) Payload (size=18) ns3::EthernetTrailer (fcs=0)
- 2.34656 /NodeList/5/DeviceList/2/$ns3::CsmaNetDevice/TxQueue/Dequeue ns3::EthernetHeader ( length/type=0x806, source=00:00:00:00:00:0a, destination=00:00:00:00:00:07) ns3::ArpHeader (reply source mac: 00-06-00:00:00:00:00:0a source ipv4: 10.250.1.4 dest mac: 00-06-00:00:00:00:00:07 dest ipv4: 10.250.1.1) Payload (size=18) ns3::EthernetTrailer (fcs=0)
r 2.34867 /NodeList/2/DeviceList/3/$ns3::CsmaNetDevice/MacRx ns3::EthernetHeader ( length/type=0x806, source=00:00:00:00:00:0a, destination=00:00:00:00:00:07) ns3::ArpHeader (reply source mac: 00-06-00:00:00:00:00:0a source ipv4: 10.250.1.4 dest mac: 00-06-00:00:00:00:00:07 dest ipv4: 10.250.1.1) Payload (size=18) ns3::EthernetTrailer (fcs=0)
+ 2.34867 /NodeList/2/DeviceList/3/$ns3::CsmaNetDevice/TxQueue/Enqueue ns3::EthernetHeader ( length/type=0x800, source=00:00:00:00:00:07, destination=00:00:00:00:00:0a) ns3::Ipv4Header (tos 0x0 DSCP Default ECN Not-ECT ttl 63 id 0 protocol 17 offset (bytes) 0 flags [none] length: 78 10.1.1.1 > 10.1.3.2) ns3::UdpHeader (length: 58 49153 > 9) Payload (size=50) ns3::EthernetTrailer (fcs=0)
- 2.34867 /NodeList/2/DeviceList/3/$ns3::CsmaNetDevice/TxQueue/Dequeue ns3::EthernetHeader ( length/type=0x800, source=00:00:00:00:00:07, destination=00:00:00:00:00:0a) ns3::Ipv4Header (tos 0x0 DSCP Default ECN Not-ECT ttl 63 id 0 protocol 17 offset (bytes) 0 flags [none] length: 78 10.1.1.1 > 10.1.3.2) ns3::UdpHeader (length: 58 49153 > 9) Payload (size=50) ns3::EthernetTrailer (fcs=0)
r 2.35082 /NodeList/5/DeviceList/2/$ns3::CsmaNetDevice/MacRx ns3::EthernetHeader ( length/type=0x800, source=00:00:00:00:00:07, destination=00:00:00:00:00:0a) ns3::Ipv4Header (tos 0x0 DSCP Default ECN Not-ECT ttl 63 id 0 protocol 17 offset (bytes) 0 flags [none] length: 78 10.1.1.1 > 10.1.3.2) ns3::UdpHeader (length: 58 49153 > 9) Payload (size=50) ns3::EthernetTrailer (fcs=0)
+ 2.35082 /NodeList/5/DeviceList/1/$ns3::PointToPointNetDevice/TxQueue/Enqueue ns3::PppHeader (Point-to-Point Protocol: IP (0x0021)) ns3::Ipv4Header (tos 0x0 DSCP Default ECN Not-ECT ttl 62 id 0 protocol 17 offset (bytes) 0 flags [none] length: 78 10.1.1.1 > 10.1.3.2) ns3::UdpHeader (length: 58 49153 > 9) Payload (size=50)
- 2.35082 /NodeList/5/DeviceList/1/$ns3::PointToPointNetDevice/TxQueue/Dequeue ns3::PppHeader (Point-to-Point Protocol: IP (0x0021)) ns3::Ipv4Header (tos 0x0 DSCP Default ECN Not-ECT ttl 62 id 0 protocol 17 offset (bytes) 0 flags [none] length: 78 10.1.1.1 > 10.1.3.2) ns3::UdpHeader (length: 58 49153 > 9) Payload (size=50)
r 2.36125 /NodeList/6/DeviceList/1/$ns3::PointToPointNetDevice/MacRx ns3::PppHeader (Point-to-Point Protocol: IP (0x0021)) ns3::Ipv4Header (tos 0x0 DSCP Default ECN Not-ECT ttl 62 id 0 protocol 17 offset (bytes) 0 flags [none] length: 78 10.1.1.1 > 10.1.3.2) ns3::UdpHeader (length: 58 49153 > 9) Payload (size=50)
+ 2.36125 /NodeList/6/DeviceList/1/$ns3::PointToPointNetDevice/TxQueue/Enqueue ns3::PppHeader (Point-to-Point Protocol: IP (0x0021)) ns3::Ipv4Header (tos 0x0 DSCP Default ECN Not-ECT ttl 64 id 0 protocol 1 offset (bytes) 0 flags [none] length: 56 10.1.3.2 > 10.1.1.1) ns3::Icmpv4Header (type=3, code=3) ns3::Icmpv4DestinationUnreachable (tos 0x0 DSCP Default ECN Not-ECT ttl 62 id 0 protocol 17 offset (bytes) 0 flags [none] length: 78 10.1.1.1 > 10.1.3.2 org data=192 1 0 9 0 58 0 0 )
- 2.36125 /NodeList/6/DeviceList/1/$ns3::PointToPointNetDevice/TxQueue/Dequeue ns3::PppHeader (Point-to-Point Protocol: IP (0x0021)) ns3::Ipv4Header (tos 0x0 DSCP Default ECN Not-ECT ttl 64 id 0 protocol 1 offset (bytes) 0 flags [none] length: 56 10.1.3.2 > 10.1.1.1) ns3::Icmpv4Header (type=3, code=3) ns3::Icmpv4DestinationUnreachable (tos 0x0 DSCP Default ECN Not-ECT ttl 62 id 0 protocol 17 offset (bytes) 0 flags [none] length: 78 10.1.1.1 > 10.1.3.2 org data=192 1 0 9 0 58 0 0 )
r 2.37156 /NodeList/5/DeviceList/1/$ns3::PointToPointNetDevice/MacRx ns3::PppHeader (Point-to-Point Protocol: IP (0x0021)) ns3::Ipv4Header (tos 0x0 DSCP Default ECN Not-ECT ttl 64 id 0 protocol 1 offset (bytes) 0 flags [none] length: 56 10.1.3.2 > 10.1.1.1) ns3::Icmpv4Header (type=3, code=3) ns3::Icmpv4DestinationUnreachable (tos 0x0 DSCP Default ECN Not-ECT ttl 62 id 0 protocol 17 offset (bytes) 0 flags [none] length: 78 10.1.1.1 > 10.1.3.2 org data=192 1 0 9 0 58 0 0 )
+ 2.37756 /NodeList/5/DeviceList/2/$ns3::CsmaNetDevice/TxQueue/Enqueue ns3::EthernetHeader ( length/type=0x806, source=00:00:00:00:00:0a, destination=ff:ff:ff:ff:ff:ff) ns3::ArpHeader (request source mac: 00-06-00:00:00:00:00:0a source ipv4: 10.250.1.4 dest ipv4: 10.250.1.1) Payload (size=18) ns3::EthernetTrailer (fcs=0)
- 2.37756 /NodeList/5/DeviceList/2/$ns3::CsmaNetDevice/TxQueue/Dequeue ns3::EthernetHeader ( length/type=0x806, source=00:00:00:00:00:0a, destination=ff:ff:ff:ff:ff:ff) ns3::ArpHeader (request source mac: 00-06-00:00:00:00:00:0a source ipv4: 10.250.1.4 dest ipv4: 10.250.1.1) Payload (size=18) ns3::EthernetTrailer (fcs=0)
r 2.37966 /NodeList/2/DeviceList/3/$ns3::CsmaNetDevice/MacRx ns3::EthernetHeader ( length/type=0x806, source=00:00:00:00:00:0a, destination=ff:ff:ff:ff:ff:ff) ns3::ArpHeader (request source mac: 00-06-00:00:00:00:00:0a source ipv4: 10.250.1.4 dest ipv4: 10.250.1.1) Payload (size=18) ns3::EthernetTrailer (fcs=0)
+ 2.37966 /NodeList/2/DeviceList/3/$ns3::CsmaNetDevice/TxQueue/Enqueue ns3::EthernetHeader ( length/type=0x806, source=00:00:00:00:00:07, destination=00:00:00:00:00:0a) ns3::ArpHeader (reply source mac: 00-06-00:00:00:00:00:07 source ipv4: 10.250.1.1 dest mac: 00-06-00:00:00:00:00:0a dest ipv4: 10.250.1.4) Payload (size=18) ns3::EthernetTrailer (fcs=0)
- 2.37966 /NodeList/2/DeviceList/3/$ns3::CsmaNetDevice/TxQueue/Dequeue ns3::EthernetHeader ( length/type=0x806, source=00:00:00:00:00:07, destination=00:00:00:00:00:0a) ns3::ArpHeader (reply source mac: 00-06-00:00:00:00:00:07 source ipv4: 10.250.1.1 dest mac: 00-06-00:00:00:00:00:0a dest ipv4: 10.250.1.4) Payload (size=18) ns3::EthernetTrailer (fcs=0)
r 2.37966 /NodeList/3/DeviceList/1/$ns3::CsmaNetDevice/MacRx ns3::EthernetHeader ( length/type=0x806, source=00:00:00:00:00:0a, destination=ff:ff:ff:ff:ff:ff) ns3::ArpHeader (request source mac: 00-06-00:00:00:00:00:0a source ipv4: 10.250.1.4 dest ipv4: 10.250.1.1) Payload (size=18) ns3::EthernetTrailer (fcs=0)
r 2.37966 /NodeList/4/DeviceList/1/$ns3::CsmaNetDevice/MacRx ns3::EthernetHeader ( length/type=0x806, source=00:00:00:00:00:0a, destination=ff:ff:ff:ff:ff:ff) ns3::ArpHeader (request source mac: 00-06-00:00:00:00:00:0a source ipv4: 10.250.1.4 dest ipv4: 10.250.1.1) Payload (size=18) ns3::EthernetTrailer (fcs=0)
r 2.38176 /NodeList/5/DeviceList/2/$ns3::CsmaNetDevice/MacRx ns3::EthernetHeader ( length/type=0x806, source=00:00:00:00:00:07, destination=00:00:00:00:00:0a) ns3::ArpHeader (reply source mac: 00-06-00:00:00:00:00:07 source ipv4: 10.250.1.1 dest mac: 00-06-00:00:00:00:00:0a dest ipv4: 10.250.1.4) Payload (size=18) ns3::EthernetTrailer (fcs=0)
+ 2.38176 /NodeList/5/DeviceList/2/$ns3::CsmaNetDevice/TxQueue/Enqueue ns3::EthernetHeader ( length/type=0x800, source=00:00:00:00:00:0a, destination=00:00:00:00:00:07) ns3::Ipv4Header (tos 0x0 DSCP Default ECN Not-ECT ttl 63 id 0 protocol 1 offset (bytes) 0 flags [none] length: 56 10.1.3.2 > 10.1.1.1) ns3::Icmpv4Header (type=3, code=3) ns3::Icmpv4DestinationUnreachable (tos 0x0 DSCP Default ECN Not-ECT ttl 62 id 0 protocol 17 offset (bytes) 0 flags [none] length: 78 10.1.1.1 > 10.1.3.2 org data=192 1 0 9 0 58 0 0 ) ns3::EthernetTrailer (fcs=0)
- 2.38176 /NodeList/5/DeviceList/2/$ns3::CsmaNetDevice/TxQueue/Dequeue ns3::EthernetHeader ( length/type=0x800, source=00:00:00:00:00:0a, destination=00:00:00:00:00:07) ns3::Ipv4Header (tos 0x0 DSCP Default ECN Not-ECT ttl 63 id 0 protocol 1 offset (bytes) 0 flags [none] length: 56 10.1.3.2 > 10.1.1.1) ns3::Icmpv4Header (type=3, code=3) ns3::Icmpv4DestinationUnreachable (tos 0x0 DSCP Default ECN Not-ECT ttl 62 id 0 protocol 17 offset (bytes) 0 flags [none] length: 78 10.1.1.1 > 10.1.3.2 org data=192 1 0 9 0 58 0 0 ) ns3::EthernetTrailer (fcs=0)
r 2.38388 /NodeList/2/DeviceList/3/$ns3::CsmaNetDevice/MacRx ns3::EthernetHeader ( length/type=0x800, source=00:00:00:00:00:0a, destination=00:00:00:00:00:07) ns3::Ipv4Header (tos 0x0 DSCP Default ECN Not-ECT ttl 63 id 0 protocol 1 offset (bytes) 0 flags [none] length: 56 10.1.3.2 > 10.1.1.1) ns3::Icmpv4Header (type=3, code=3) ns3::Icmpv4DestinationUnreachable (tos 0x0 DSCP Default ECN Not-ECT ttl 62 id 0 protocol 17 offset (bytes) 0 flags [none] length: 78 10.1.1.1 > 10.1.3.2 org data=192 1 0 9 0 58 0 0 ) ns3::EthernetTrailer (fcs=0)
+ 2.38388 /NodeList/2/DeviceList/1/$ns3::PointToPointNetDevice/TxQueue/Enqueue ns3::PppHeader (Point-to-Point Protocol: IP (0x0021)) ns3::Ipv4Header (tos 0x0 DSCP Default ECN Not-ECT ttl 62 id 0 protocol 1 offset (bytes) 0 flags [none] length: 56 10.1.3.2 > 10.1.1.1) ns3::Icmpv4Header (type=3, code=3) ns3::Icmpv4DestinationUnreachable (tos 0x0 DSCP Default ECN Not-ECT ttl 62 id 0 protocol 17 offset (bytes) 0 flags [none] length: 78 10.1.1.1 > 10.1.3.2 org data=192 1 0 9 0 58 0 0 )
- 2.38388 /NodeList/2/DeviceList/1/$ns3::PointToPointNetDevice/TxQueue/Dequeue ns3::PppHeader (Point-to-Point Protocol: IP (0x0021)) ns3::Ipv4Header (tos 0x0 DSCP Default ECN Not-ECT ttl 62 id 0 protocol 1 offset (bytes) 0 flags [none] length: 56 10.1.3.2 > 10.1.1.1) ns3::Icmpv4Header (type=3, code=3) ns3::Icmpv4DestinationUnreachable (tos 0x0 DSCP Default ECN Not-ECT ttl 62 id 0 protocol 17 offset (bytes) 0 flags [none] length: 78 10.1.1.1 > 10.1.3.2 org data=192 1 0 9 0 58 0 0 )
r 2.38598 /NodeList/0/DeviceList/1/$ns3::PointToPointNetDevice/MacRx ns3::PppHeader (Point-to-Point Protocol: IP (0x0021)) ns3::Ipv4Header (tos 0x0 DSCP Default ECN Not-ECT ttl 62 id 0 protocol 1 offset (bytes) 0 flags [none] length: 56 10.1.3.2 > 10.1.1.1) ns3::Icmpv4Header (type=3, code=3) ns3::Icmpv4DestinationUnreachable (tos 0x0 DSCP Default ECN Not-ECT ttl 62 id 0 protocol 17 offset (bytes) 0 flags [none] length: 78 10.1.1.1 > 10.1.3.2 org data=192 1 0 9 0 58 0 0 )
+ 3.66667 /NodeList/0/DeviceList/1/$ns3::PointToPointNetDevice/TxQueue/Enqueue ns3::PppHeader (Point-to-Point Protocol: IP (0x0021)) ns3::Ipv4Header (tos 0x0 DSCP Default ECN Not-ECT ttl 64 id 1 protocol 17 offset (bytes) 0 flags [none] length: 78 10.1.1.1 > 10.1.3.2) ns3::UdpHeader (length: 58 49153 > 9) Payload (size=50)
- 3.66667 /NodeList/0/DeviceList/1/$ns3::PointToPointNetDevice/TxQueue/Dequeue ns3::PppHeader (Point-to-Point Protocol: IP (0x0021)) ns3::Ipv4Header (tos 0x0 DSCP Default ECN Not-ECT ttl 64 id 1 protocol 17 offset (bytes) 0 flags [none] length: 78 10.1.1.1 > 10.1.3.2) ns3::UdpHeader (length: 58 49153 > 9) Payload (size=50)
r 3.66879 /NodeList/2/DeviceList/1/$ns3::PointToPointNetDevice/MacRx ns3::PppHeader (Point-to-Point Protocol: IP (0x0021)) ns3::Ipv4Header (tos 0x0 DSCP Default ECN Not-ECT ttl 64 id 1 protocol 17 offset (bytes) 0 flags [none] length: 78 10.1.1.1 > 10.1.3.2) ns3::UdpHeader (length: 58 49153 > 9) Payload (size=50)
+ 3.66879 /NodeList/2/DeviceList/3/$ns3::CsmaNetDevice/TxQueue/Enqueue ns3::EthernetHeader ( length/type=0x800, source=00:00:00:00:00:07, destination=00:00:00:00:00:0a) ns3::Ipv4Header (tos 0x0 DSCP Default ECN Not-ECT ttl 63 id 1 protocol 17 offset (bytes) 0 flags [none] length: 78 10.1.1.1 > 10.1.3.2) ns3::UdpHeader (length: 58 49153 > 9) Payload (size=50) ns3::EthernetTrailer (fcs=0)
- 3.66879 /NodeList/2/DeviceList/3/$ns3::CsmaNetDevice/TxQueue/Dequeue ns3::EthernetHeader ( length/type=0x800, source=00:00:00:00:00:07, destination=00:00:00:00:00:0a) ns3::Ipv4Header (tos 0x0 DSCP Default ECN Not-ECT ttl 63 id 1 protocol 17 offset (bytes) 0 flags [none] length: 78 10.1.1.1 > 10.1.3.2) ns3::UdpHeader (length: 58 49153 > 9) Payload (size=50) ns3::EthernetTrailer (fcs=0)
r 3.67095 /NodeList/5/DeviceList/2/$ns3::CsmaNetDevice/MacRx ns3::EthernetHeader ( length/type=0x800, source=00:00:00:00:00:07, destination=00:00:00:00:00:0a) ns3::Ipv4Header (tos 0x0 DSCP Default ECN Not-ECT ttl 63 id 1 protocol 17 offset (bytes) 0 flags [none] length: 78 10.1.1.1 > 10.1.3.2) ns3::UdpHeader (length: 58 49153 > 9) Payload (size=50) ns3::EthernetTrailer (fcs=0)
+ 3.67095 /NodeList/5/DeviceList/1/$ns3::PointToPointNetDevice/TxQueue/Enqueue ns3::PppHeader (Point-to-Point Protocol: IP (0x0021)) ns3::Ipv4Header (tos 0x0 DSCP Default ECN Not-ECT ttl 62 id 1 protocol 17 offset (bytes) 0 flags [none] length: 78 10.1.1.1 > 10.1.3.2) ns3::UdpHeader (length: 58 49153 > 9) Payload (size=50)
- 3.67095 /NodeList/5/DeviceList/1/$ns3::PointToPointNetDevice/TxQueue/Dequeue ns3::PppHeader (Point-to-Point Protocol: IP (0x0021)) ns3::Ipv4Header (tos 0x0 DSCP Default ECN Not-ECT ttl 62 id 1 protocol 17 offset (bytes) 0 flags [none] length: 78 10.1.1.1 > 10.1.3.2) ns3::UdpHeader (length: 58 49153 > 9) Payload (size=50)
r 3.68137 /NodeList/6/DeviceList/1/$ns3::PointToPointNetDevice/MacRx ns3::PppHeader (Point-to-Point Protocol: IP (0x0021)) ns3::Ipv4Header (tos 0x0 DSCP Default ECN Not-ECT ttl 62 id 1 protocol 17 offset (bytes) 0 flags [none] length: 78 10.1.1.1 > 10.1.3.2) ns3::UdpHeader (length: 58 49153 > 9) Payload (size=50)
+ 3.68137 /NodeList/6/DeviceList/1/$ns3::PointToPointNetDevice/TxQueue/Enqueue ns3::PppHeader (Point-to-Point Protocol: IP (0x0021)) ns3::Ipv4Header (tos 0x0 DSCP Default ECN Not-ECT ttl 64 id 1 protocol 1 offset (bytes) 0 flags [none] length: 56 10.1.3.2 > 10.1.1.1) ns3::Icmpv4Header (type=3, code=3) ns3::Icmpv4DestinationUnreachable (tos 0x0 DSCP Default ECN Not-ECT ttl 62 id 1 protocol 17 offset (bytes) 0 flags [none] length: 78 10.1.1.1 > 10.1.3.2 org data=192 1 0 9 0 58 0 0 )
- 3.68137 /NodeList/6/DeviceList/1/$ns3::PointToPointNetDevice/TxQueue/Dequeue ns3::PppHeader (Point-to-Point Protocol: IP (0x0021)) ns3::Ipv4Header (tos 0x0 DSCP Default ECN Not-ECT ttl 64 id 1 protocol 1 offset (bytes) 0 flags [none] length: 56 10.1.3.2 > 10.1.1.1) ns3::Icmpv4Header (type=3, code=3) ns3::Icmpv4DestinationUnreachable (tos 0x0 DSCP Default ECN Not-ECT ttl 62 id 1 protocol 17 offset (bytes) 0 flags [none] length: 78 10.1.1.1 > 10.1.3.2 org data=192 1 0 9 0 58 0 0 )
r 3.69168 /NodeList/5/DeviceList/1/$ns3::PointToPointNetDevice/MacRx ns3::PppHeader (Point-to-Point Protocol: IP (0x0021)) ns3::Ipv4Header (tos 0x0 DSCP Default ECN Not-ECT ttl 64 id 1 protocol 1 offset (bytes) 0 flags [none] length: 56 10.1.3.2 > 10.1.1.1) ns3::Icmpv4Header (type=3, code=3) ns3::Icmpv4DestinationUnreachable (tos 0x0 DSCP Default ECN Not-ECT ttl 62 id 1 protocol 17 offset (bytes) 0 flags [none] length: 78 10.1.1.1 > 10.1.3.2 org data=192 1 0 9 0 58 0 0 )
+ 3.69168 /NodeList/5/DeviceList/2/$ns3::CsmaNetDevice/TxQueue/Enqueue ns3::EthernetHeader ( length/type=0x800, source=00:00:00:00:00:0a, destination=00:00:00:00:00:07) ns3::Ipv4Header (tos 0x0 DSCP Default ECN Not-ECT ttl 63 id 1 protocol 1 offset (bytes) 0 flags [none] length: 56 10.1.3.2 > 10.1.1.1) ns3::Icmpv4Header (type=3, code=3) ns3::Icmpv4DestinationUnreachable (tos 0x0 DSCP Default ECN Not-ECT ttl 62 id 1 protocol 17 offset (bytes) 0 flags [none] length: 78 10.1.1.1 > 10.1.3.2 org data=192 1 0 9 0 58 0 0 ) ns3::EthernetTrailer (fcs=0)
- 3.69168 /NodeList/5/DeviceList/2/$ns3::CsmaNetDevice/TxQueue/Dequeue ns3::EthernetHeader ( length/type=0x800, source=00:00:00:00:00:0a, destination=00:00:00:00:00:07) ns3::Ipv4Header (tos 0x0 DSCP Default ECN Not-ECT ttl 63 id 1 protocol 1 offset (bytes) 0 flags [none] length: 56 10.1.3.2 > 10.1.1.1) ns3::Icmpv4Header (type=3, code=3) ns3::Icmpv4DestinationUnreachable (tos 0x0 DSCP Default ECN Not-ECT ttl 62 id 1 protocol 17 offset (bytes) 0 flags [none] length: 78 10.1.1.1 > 10.1.3.2 org data=192 1 0 9 0 58 0 0 ) ns3::EthernetTrailer (fcs=0)
r 3.6938 /NodeList/2/DeviceList/3/$ns3::CsmaNetDevice/MacRx ns3::EthernetHeader ( length/type=0x800, source=00:00:00:00:00:0a, destination=00:00:00:00:00:07) ns3::Ipv4Header (tos 0x0 DSCP Default ECN Not-ECT ttl 63 id 1 protocol 1 offset (bytes) 0 flags [none] length: 56 10.1.3.2 > 10.1.1.1) ns3::Icmpv4Header (type=3, code=3) ns3::Icmpv4DestinationUnreachable (tos 0x0 DSCP Default ECN Not-ECT ttl 62 id 1 protocol 17 offset (bytes) 0 flags [none] length: 78 10.1.1.1 > 10.1.3.2 org data=192 1 0 9 0 58 0 0 ) ns3::EthernetTrailer (fcs=0)
+ 3.6938 /NodeList/2/DeviceList/1/$ns3::PointToPointNetDevice/TxQueue/Enqueue ns3::PppHeader (Point-to-Point Protocol: IP (0x0021)) ns3::Ipv4Header (tos 0x0 DSCP Default ECN Not-ECT ttl 62 id 1 protocol 1 offset (bytes) 0 flags [none] length: 56 10.1.3.2 > 10.1.1.1) ns3::Icmpv4Header (type=3, code=3) ns3::Icmpv4DestinationUnreachable (tos 0x0 DSCP Default ECN Not-ECT ttl 62 id 1 protocol 17 offset (bytes) 0 flags [none] length: 78 10.1.1.1 > 10.1.3.2 org data=192 1 0 9 0 58 0 0 )
- 3.6938 /NodeList/2/DeviceList/1/$ns3::PointToPointNetDevice/TxQueue/Dequeue ns3::PppHeader (Point-to-Point Protocol: IP (0x0021)) ns3::Ipv4Header (tos 0x0 DSCP Default ECN Not-ECT ttl 62 id 1 protocol 1 offset (bytes) 0 flags [none] length: 56 10.1.3.2 > 10.1.1.1) ns3::Icmpv4Header (type=3, code=3) ns3::Icmpv4DestinationUnreachable (tos 0x0 DSCP Default ECN Not-ECT ttl 62 id 1 protocol 17 offset (bytes) 0 flags [none] length: 78 10.1.1.1 > 10.1.3.2 org data=192 1 0 9 0 58 0 0 )
r 3.6959 /NodeList/0/DeviceList/1/$ns3::PointToPointNetDevice/MacRx ns3::PppHeader (Point-to-Point Protocol: IP (0x0021)) ns3::Ipv4Header (tos 0x0 DSCP Default ECN Not-ECT ttl 62 id 1 protocol 1 offset (bytes) 0 flags [none] length: 56 10.1.3.2 > 10.1.1.1) ns3::Icmpv4Header (type=3, code=3) ns3::Icmpv4DestinationUnreachable (tos 0x0 DSCP Default ECN Not-ECT ttl 62 id 1 protocol 17 offset (bytes) 0 flags [none] length: 78 10.1.1.1 > 10.1.3.2 org data=192 1 0 9 0 58 0 0 )
+ 5 /NodeList/0/DeviceList/1/$ns3::PointToPointNetDevice/TxQueue/Enqueue ns3::PppHeader (Point-to-Point Protocol: IP (0x0021)) ns3::Ipv4Header (tos 0x0 DSCP Default ECN Not-ECT ttl 64 id 2 protocol 17 offset (bytes) 0 flags [none] length: 78 10.1.1.1 > 10.1.3.2) ns3::UdpHeader (length: 58 49153 > 9) Payload (size=50)
- 5 /NodeList/0/DeviceList/1/$ns3::PointToPointNetDevice/TxQueue/Dequeue ns3::PppHeader (Point-to-Point Protocol: IP (0x0021)) ns3::Ipv4Header (tos 0x0 DSCP Default ECN Not-ECT ttl 64 id 2 protocol 17 offset (bytes) 0 flags [none] length: 78 10.1.1.1 > 10.1.3.2) ns3::UdpHeader (length: 58 49153 > 9) Payload (size=50)
r 5.00213 /NodeList/2/DeviceList/1/$ns3::PointToPointNetDevice/MacRx ns3::PppHeader (Point-to-Point Protocol: IP (0x0021)) ns3::Ipv4Header (tos 0x0 DSCP Default ECN Not-ECT ttl 64 id 2 protocol 17 offset (bytes) 0 flags [none] length: 78 10.1.1.1 > 10.1.3.2) ns3::UdpHeader (length: 58 49153 > 9) Payload (size=50)
+ 5.00213 /NodeList/2/DeviceList/3/$ns3::CsmaNetDevice/TxQueue/Enqueue ns3::EthernetHeader ( length/type=0x800, source=00:00:00:00:00:07, destination=00:00:00:00:00:0a) ns3::Ipv4Header (tos 0x0 DSCP Default ECN Not-ECT ttl 63 id 2 protocol 17 offset (bytes) 0 flags [none] length: 78 10.1.1.1 > 10.1.3.2) ns3::UdpHeader (length: 58 49153 > 9) Payload (size=50) ns3::EthernetTrailer (fcs=0)
- 5.00213 /NodeList/2/DeviceList/3/$ns3::CsmaNetDevice/TxQueue/Dequeue ns3::EthernetHeader ( length/type=0x800, source=00:00:00:00:00:07, destination=00:00:00:00:00:0a) ns3::Ipv4Header (tos 0x0 DSCP Default ECN Not-ECT ttl 63 id 2 protocol 17 offset (bytes) 0 flags [none] length: 78 10.1.1.1 > 10.1.3.2) ns3::UdpHeader (length: 58 49153 > 9) Payload (size=50) ns3::EthernetTrailer (fcs=0)
r 5.00428 /NodeList/5/DeviceList/2/$ns3::CsmaNetDevice/MacRx ns3::EthernetHeader ( length/type=0x800, source=00:00:00:00:00:07, destination=00:00:00:00:00:0a) ns3::Ipv4Header (tos 0x0 DSCP Default ECN Not-ECT ttl 63 id 2 protocol 17 offset (bytes) 0 flags [none] length: 78 10.1.1.1 > 10.1.3.2) ns3::UdpHeader (length: 58 49153 > 9) Payload (size=50) ns3::EthernetTrailer (fcs=0)
+ 5.00428 /NodeList/5/DeviceList/1/$ns3::PointToPointNetDevice/TxQueue/Enqueue ns3::PppHeader (Point-to-Point Protocol: IP (0x0021)) ns3::Ipv4Header (tos 0x0 DSCP Default ECN Not-ECT ttl 62 id 2 protocol 17 offset (bytes) 0 flags [none] length: 78 10.1.1.1 > 10.1.3.2) ns3::UdpHeader (length: 58 49153 > 9) Payload (size=50)
- 5.00428 /NodeList/5/DeviceList/1/$ns3::PointToPointNetDevice/TxQueue/Dequeue ns3::PppHeader (Point-to-Point Protocol: IP (0x0021)) ns3::Ipv4Header (tos 0x0 DSCP Default ECN Not-ECT ttl 62 id 2 protocol 17 offset (bytes) 0 flags [none] length: 78 10.1.1.1 > 10.1.3.2) ns3::UdpHeader (length: 58 49153 > 9) Payload (size=50)
r 5.01471 /NodeList/6/DeviceList/1/$ns3::PointToPointNetDevice/MacRx ns3::PppHeader (Point-to-Point Protocol: IP (0x0021)) ns3::Ipv4Header (tos 0x0 DSCP Default ECN Not-ECT ttl 62 id 2 protocol 17 offset (bytes) 0 flags [none] length: 78 10.1.1.1 > 10.1.3.2) ns3::UdpHeader (length: 58 49153 > 9) Payload (size=50)
+ 5.01471 /NodeList/6/DeviceList/1/$ns3::PointToPointNetDevice/TxQueue/Enqueue ns3::PppHeader (Point-to-Point Protocol: IP (0x0021)) ns3::Ipv4Header (tos 0x0 DSCP Default ECN Not-ECT ttl 64 id 2 protocol 1 offset (bytes) 0 flags [none] length: 56 10.1.3.2 > 10.1.1.1) ns3::Icmpv4Header (type=3, code=3) ns3::Icmpv4DestinationUnreachable (tos 0x0 DSCP Default ECN Not-ECT ttl 62 id 2 protocol 17 offset (bytes) 0 flags [none] length: 78 10.1.1.1 > 10.1.3.2 org data=192 1 0 9 0 58 0 0 )
- 5.01471 /NodeList/6/DeviceList/1/$ns3::PointToPointNetDevice/TxQueue/Dequeue ns3::PppHeader (Point-to-Point Protocol: IP (0x0021)) ns3::Ipv4Header (tos 0x0 DSCP Default ECN Not-ECT ttl 64 id 2 protocol 1 offset (bytes) 0 flags [none] length: 56 10.1.3.2 > 10.1.1.1) ns3::Icmpv4Header (type=3, code=3) ns3::Icmpv4DestinationUnreachable (tos 0x0 DSCP Default ECN Not-ECT ttl 62 id 2 protocol 17 offset (bytes) 0 flags [none] length: 78 10.1.1.1 > 10.1.3.2 org data=192 1 0 9 0 58 0 0 )
r 5.02502 /NodeList/5/DeviceList/1/$ns3::PointToPointNetDevice/MacRx ns3::PppHeader (Point-to-Point Protocol: IP (0x0021)) ns3::Ipv4Header (tos 0x0 DSCP Default ECN Not-ECT ttl 64 id 2 protocol 1 offset (bytes) 0 flags [none] length: 56 10.1.3.2 > 10.1.1.1) ns3::Icmpv4Header (type=3, code=3) ns3::Icmpv4DestinationUnreachable (tos 0x0 DSCP Default ECN Not-ECT ttl 62 id 2 protocol 17 offset (bytes) 0 flags [none] length: 78 10.1.1.1 > 10.1.3.2 org data=192 1 0 9 0 58 0 0 )
+ 5.02502 /NodeList/5/DeviceList/2/$ns3::CsmaNetDevice/TxQueue/Enqueue ns3::EthernetHeader ( length/type=0x800, source=00:00:00:00:00:0a, destination=00:00:00:00:00:07) ns3::Ipv4Header (tos 0x0 DSCP Default ECN Not-ECT ttl 63 id 2 protocol 1 offset (bytes) 0 flags [none] length: 56 10.1.3.2 > 10.1.1.1) ns3::Icmpv4Header (type=3, code=3) ns3::Icmpv4DestinationUnreachable (tos 0x0 DSCP Default ECN Not-ECT ttl 62 id 2 protocol 17 offset (bytes) 0 flags [none] length: 78 10.1.1.1 > 10.1.3.2 org data=192 1 0 9 0 58 0 0 ) ns3::EthernetTrailer (fcs=0)
- 5.02502 /NodeList/5/DeviceList/2/$ns3::CsmaNetDevice/TxQueue/Dequeue ns3::EthernetHeader ( length/type=0x800, source=00:00:00:00:00:0a, destination=00:00:00:00:00:07) ns3::Ipv4Header (tos 0x0 DSCP Default ECN Not-ECT ttl 63 id 2 protocol 1 offset (bytes) 0 flags [none] length: 56 10.1.3.2 > 10.1.1.1) ns3::Icmpv4Header (type=3, code=3) ns3::Icmpv4DestinationUnreachable (tos 0x0 DSCP Default ECN Not-ECT ttl 62 id 2 protocol 17 offset (bytes) 0 flags [none] length: 78 10.1.1.1 > 10.1.3.2 org data=192 1 0 9 0 58 0 0 ) ns3::EthernetTrailer (fcs=0)
r 5.02714 /NodeList/2/DeviceList/3/$ns3::CsmaNetDevice/MacRx ns3::EthernetHeader ( length/type=0x800, source=00:00:00:00:00:0a, destination=00:00:00:00:00:07) ns3::Ipv4Header (tos 0x0 DSCP Default ECN Not-ECT ttl 63 id 2 protocol 1 offset (bytes) 0 flags [none] length: 56 10.1.3.2 > 10.1.1.1) ns3::Icmpv4Header (type=3, code=3) ns3::Icmpv4DestinationUnreachable (tos 0x0 DSCP Default ECN Not-ECT ttl 62 id 2 protocol 17 offset (bytes) 0 flags [none] length: 78 10.1.1.1 > 10.1.3.2 org data=192 1 0 9 0 58 0 0 ) ns3::EthernetTrailer (fcs=0)
+ 5.02714 /NodeList/2/DeviceList/1/$ns3::PointToPointNetDevice/TxQueue/Enqueue ns3::PppHeader (Point-to-Point Protocol: IP (0x0021)) ns3::Ipv4Header (tos 0x0 DSCP Default ECN Not-ECT ttl 62 id 2 protocol 1 offset (bytes) 0 flags [none] length: 56 10.1.3.2 > 10.1.1.1) ns3::Icmpv4Header (type=3, code=3) ns3::Icmpv4DestinationUnreachable (tos 0x0 DSCP Default ECN Not-ECT ttl 62 id 2 protocol 17 offset (bytes) 0 flags [none] length: 78 10.1.1.1 > 10.1.3.2 org data=192 1 0 9 0 58 0 0 )
- 5.02714 /NodeList/2/DeviceList/1/$ns3::PointToPointNetDevice/TxQueue/Dequeue ns3::PppHeader (Point-to-Point Protocol: IP (0x0021)) ns3::Ipv4Header (tos 0x0 DSCP Default ECN Not-ECT ttl 62 id 2 protocol 1 offset (bytes) 0 flags [none] length: 56 10.1.3.2 > 10.1.1.1) ns3::Icmpv4Header (type=3, code=3) ns3::Icmpv4DestinationUnreachable (tos 0x0 DSCP Default ECN Not-ECT ttl 62 id 2 protocol 17 offset (bytes) 0 flags [none] length: 78 10.1.1.1 > 10.1.3.2 org data=192 1 0 9 0 58 0 0 )
r 5.02923 /NodeList/0/DeviceList/1/$ns3::PointToPointNetDevice/MacRx ns3::PppHeader (Point-to-Point Protocol: IP (0x0021)) ns3::Ipv4Header (tos 0x0 DSCP Default ECN Not-ECT ttl 62 id 2 protocol 1 offset (bytes) 0 flags [none] length: 56 10.1.3.2 > 10.1.1.1) ns3::Icmpv4Header (type=3, code=3) ns3::Icmpv4DestinationUnreachable (tos 0x0 DSCP Default ECN Not-ECT ttl 62 id 2 protocol 17 offset (bytes) 0 flags [none] length: 78 10.1.1.1 > 10.1.3.2 org data=192 1 0 9 0 58 0 0 )
+ 6.33333 /NodeList/0/DeviceList/1/$ns3::PointToPointNetDevice/TxQueue/Enqueue ns3::PppHeader (Point-to-Point Protocol: IP (0x0021)) ns3::Ipv4Header (tos 0x0 DSCP Default ECN Not-ECT ttl 64 id 3 protocol 17 offset (bytes) 0 flags [none] length: 78 10.1.1.1 > 10.1.3.2) ns3::UdpHeader (length: 58 49153 > 9) Payload (size=50)
- 6.33333 /NodeList/0/DeviceList/1/$ns3::PointToPointNetDevice/TxQueue/Dequeue ns3::PppHeader (Point-to-Point Protocol: IP (0x0021)) ns3::Ipv4Header (tos 0x0 DSCP Default ECN Not-ECT ttl 64 id 3 protocol 17 offset (bytes) 0 flags [none] length: 78 10.1.1.1 > 10.1.3.2) ns3::UdpHeader (length: 58 49153 > 9) Payload (size=50)
r 6.33546 /NodeList/2/DeviceList/1/$ns3::PointToPointNetDevice/MacRx ns3::PppHeader (Point-to-Point Protocol: IP (0x0021)) ns3::Ipv4Header (tos 0x0 DSCP Default ECN Not-ECT ttl 64 id 3 protocol 17 offset (bytes) 0 flags [none] length: 78 10.1.1.1 > 10.1.3.2) ns3::UdpHeader (length: 58 49153 > 9) Payload (size=50)
+ 6.33546 /NodeList/2/DeviceList/3/$ns3::CsmaNetDevice/TxQueue/Enqueue ns3::EthernetHeader ( length/type=0x800, source=00:00:00:00:00:07, destination=00:00:00:00:00:0a) ns3::Ipv4Header (tos 0x0 DSCP Default ECN Not-ECT ttl 63 id 3 protocol 17 offset (bytes) 0 flags [none] length: 78 10.1.1.1 > 10.1.3.2) ns3::UdpHeader (length: 58 49153 > 9) Payload (size=50) ns3::EthernetTrailer (fcs=0)
- 6.33546 /NodeList/2/DeviceList/3/$ns3::CsmaNetDevice/TxQueue/Dequeue ns3::EthernetHeader ( length/type=0x800, source=00:00:00:00:00:07, destination=00:00:00:00:00:0a) ns3::Ipv4Header (tos 0x0 DSCP Default ECN Not-ECT ttl 63 id 3 protocol 17 offset (bytes) 0 flags [none] length: 78 10.1.1.1 > 10.1.3.2) ns3::UdpHeader (length: 58 49153 > 9) Payload (size=50) ns3::EthernetTrailer (fcs=0)